

     ************************************************************************
     *************** Dalton - An Electronic Structure Program ***************
     ************************************************************************

    This is output from DALTON release Dalton2019.alpha (2019)
         ( Web site: http://daltonprogram.org )

   ----------------------------------------------------------------------------

    NOTE:
     
    Dalton is an experimental code for the evaluation of molecular
    properties using (MC)SCF, DFT, CI, and CC wave functions.
    The authors accept no responsibility for the performance of
    the code or for the correctness of the results.
     
    The code (in whole or part) is provided under a licence and
    is not to be reproduced for further distribution without
    the written permission of the authors or their representatives.
     
    See the home page "http://daltonprogram.org" for further information.
     
    If results obtained with this code are published,
    the appropriate citations would be both of:
     
       K. Aidas, C. Angeli, K. L. Bak, V. Bakken, R. Bast,
       L. Boman, O. Christiansen, R. Cimiraglia, S. Coriani,
       P. Dahle, E. K. Dalskov, U. Ekstroem,
       T. Enevoldsen, J. J. Eriksen, P. Ettenhuber, B. Fernandez,
       L. Ferrighi, H. Fliegl, L. Frediani, K. Hald, A. Halkier,
       C. Haettig, H. Heiberg, T. Helgaker, A. C. Hennum,
       H. Hettema, E. Hjertenaes, S. Hoest, I.-M. Hoeyvik,
       M. F. Iozzi, B. Jansik, H. J. Aa. Jensen, D. Jonsson,
       P. Joergensen, J. Kauczor, S. Kirpekar,
       T. Kjaergaard, W. Klopper, S. Knecht, R. Kobayashi, H. Koch,
       J. Kongsted, A. Krapp, K. Kristensen, A. Ligabue,
       O. B. Lutnaes, J. I. Melo, K. V. Mikkelsen, R. H. Myhre,
       C. Neiss, C. B. Nielsen, P. Norman, J. Olsen,
       J. M. H. Olsen, A. Osted, M. J. Packer, F. Pawlowski,
       T. B. Pedersen, P. F. Provasi, S. Reine, Z. Rinkevicius,
       T. A. Ruden, K. Ruud, V. Rybkin, P. Salek, C. C. M. Samson,
       A. Sanchez de Meras, T. Saue, S. P. A. Sauer,
       B. Schimmelpfennig, K. Sneskov, A. H. Steindal,
       K. O. Sylvester-Hvid, P. R. Taylor, A. M. Teale,
       E. I. Tellgren, D. P. Tew, A. J. Thorvaldsen, L. Thoegersen,
       O. Vahtras, M. A. Watson, D. J. D. Wilson, M. Ziolkowski
       and H. Agren,
       "The Dalton quantum chemistry program system",
       WIREs Comput. Mol. Sci. 2014, 4:269–284 (doi: 10.1002/wcms.1172)
     
    and
     
       Dalton, a molecular electronic structure program,
       Release Dalton2019.alpha (2019), see http://daltonprogram.org
   ----------------------------------------------------------------------------

    Authors in alphabetical order (major contribution(s) in parenthesis):

  Kestutis Aidas,           Vilnius University,           Lithuania   (QM/MM)
  Celestino Angeli,         University of Ferrara,        Italy       (NEVPT2)
  Keld L. Bak,              UNI-C,                        Denmark     (AOSOPPA, non-adiabatic coupling, magnetic properties)
  Vebjoern Bakken,          University of Oslo,           Norway      (DALTON; geometry optimizer, symmetry detection)
  Radovan Bast,             UiT The Arctic U. of Norway,  Norway      (DALTON installation and execution frameworks)
  Pablo Baudin,             University of Valencia,       Spain       (Cholesky excitation energies)
  Linus Boman,              NTNU,                         Norway      (Cholesky decomposition and subsystems)
  Ove Christiansen,         Aarhus University,            Denmark     (CC module)
  Renzo Cimiraglia,         University of Ferrara,        Italy       (NEVPT2)
  Sonia Coriani,            Technical Univ. of Denmark,   Denmark     (CC module, MCD in RESPONS)
  Janusz Cukras,            University of Trieste,        Italy       (MChD in RESPONS)
  Paal Dahle,               University of Oslo,           Norway      (Parallelization)
  Erik K. Dalskov,          UNI-C,                        Denmark     (SOPPA)
  Thomas Enevoldsen,        Univ. of Southern Denmark,    Denmark     (SOPPA)
  Janus J. Eriksen,         Aarhus University,            Denmark     (Polarizable embedding model, TDA)
  Rasmus Faber,             University of Copenhagen,     Denmark     (Vib.avg. NMR with SOPPA, parallel AO-SOPPA)
  Tobias Fahleson,          KTH Stockholm,                Sweden      (Damped cubic response)
  Berta Fernandez,          U. of Santiago de Compostela, Spain       (doublet spin, ESR in RESPONS)
  Lara Ferrighi,            Aarhus University,            Denmark     (PCM Cubic response)
  Heike Fliegl,             University of Oslo,           Norway      (CCSD(R12))
  Luca Frediani,            UiT The Arctic U. of Norway,  Norway      (PCM)
  Bin Gao,                  UiT The Arctic U. of Norway,  Norway      (Gen1Int library)
  Christof Haettig,         Ruhr-University Bochum,       Germany     (CC module)
  Kasper Hald,              Aarhus University,            Denmark     (CC module)
  Asger Halkier,            Aarhus University,            Denmark     (CC module)
  Frederik Beyer Hansen,    University of Copenhagen,     Denmark     (Parallel AO-SOPPA)
  Erik D. Hedegaard,        Univ. of Southern Denmark,    Denmark     (Polarizable embedding model, QM/MM)
  Hanne Heiberg,            University of Oslo,           Norway      (geometry analysis, selected one-electron integrals)
  Trygve Helgaker,          University of Oslo,           Norway      (DALTON; ABACUS, ERI, DFT modules, London, and much more)
  Alf Christian Hennum,     University of Oslo,           Norway      (Parity violation)
  Hinne Hettema,            University of Auckland,       New Zealand (quadratic response in RESPONS; SIRIUS supersymmetry)
  Eirik Hjertenaes,         NTNU,                         Norway      (Cholesky decomposition)
  Pi A. B. Haase,           University of Copenhagen,     Denmark     (Triplet AO-SOPPA)
  Maria Francesca Iozzi,    University of Oslo,           Norway      (RPA)
  Christoph Jacob           TU Braunschweig               Germany     (Frozen density embedding model)
  Brano Jansik              Technical Univ. of Ostrava    Czech Rep.  (DFT cubic response)
  Hans Joergen Aa. Jensen,  Univ. of Southern Denmark,    Denmark     (DALTON; SIRIUS, RESPONS, ABACUS modules, London, and much more)
  Dan Jonsson,              UiT The Arctic U. of Norway,  Norway      (cubic response in RESPONS module)
  Poul Joergensen,          Aarhus University,            Denmark     (RESPONS, ABACUS, and CC modules)
  Maciej Kaminski,          University of Warsaw,         Poland      (CPPh in RESPONS)
  Joanna Kauczor,           Linkoeping University,        Sweden      (Complex polarization propagator (CPP) module)
  Sheela Kirpekar,          Univ. of Southern Denmark,    Denmark     (Mass-velocity & Darwin integrals)
  Wim Klopper,              KIT Karlsruhe,                Germany     (R12 code in CC, SIRIUS, and ABACUS modules)
  Stefan Knecht,            ETH Zurich,                   Switzerland (Parallel CI and MCSCF)
  Rika Kobayashi,           Australian National Univ.,    Australia   (DIIS in CC, London in MCSCF)
  Henrik Koch,              NTNU,                         Norway      (CC module, Cholesky decomposition)
  Jacob Kongsted,           Univ. of Southern Denmark,    Denmark     (Polarizable embedding model, QM/MM)
  Andrea Ligabue,           University of Modena,         Italy       (CTOCD, AOSOPPA)
  Nanna H. List             Univ. of Southern Denmark,    Denmark     (Polarizable embedding model)
  Ola B. Lutnaes,           University of Oslo,           Norway      (DFT Hessian)
  Juan I. Melo,             University of Buenos Aires,   Argentina   (LRESC, Relativistic Effects on NMR Shieldings)
  Kurt V. Mikkelsen,        University of Copenhagen,     Denmark     (MC-SCRF and QM/MM)
  Rolf H. Myhre,            NTNU,                         Norway      (Subsystems and CC3)
  Christian Neiss,          Univ. Erlangen-Nuernberg,     Germany     (CCSD(R12))
  Christian B. Nielsen,     University of Copenhagen,     Denmark     (QM/MM)
  Patrick Norman,           KTH Stockholm,                Sweden      (Cubic response and complex frequency response in RESPONS)
  Jeppe Olsen,              Aarhus University,            Denmark     (SIRIUS CI/density modules)
  Jogvan Magnus H. Olsen,   Univ. of Southern Denmark,    Denmark     (Polarizable embedding model, QM/MM)
  Anders Osted,             Copenhagen University,        Denmark     (QM/MM)
  Martin J. Packer,         University of Sheffield,      UK          (SOPPA)
  Filip Pawlowski,          Kazimierz Wielki University,  Poland      (CC3)
  Morten N. Pedersen,       Univ. of Southern Denmark,    Denmark     (Polarizable embedding model)
  Thomas B. Pedersen,       University of Oslo,           Norway      (Cholesky decomposition)
  Patricio F. Provasi,      University of Northeastern,   Argentina   (Analysis of coupling constants in localized orbitals)
  Zilvinas Rinkevicius,     KTH Stockholm,                Sweden      (open-shell DFT, ESR)
  Elias Rudberg,            KTH Stockholm,                Sweden      (DFT grid and basis info)
  Torgeir A. Ruden,         University of Oslo,           Norway      (Numerical derivatives in ABACUS)
  Kenneth Ruud,             UiT The Arctic U. of Norway,  Norway      (DALTON; ABACUS magnetic properties and much more)
  Pawel Salek,              KTH Stockholm,                Sweden      (DALTON; DFT code)
  Claire C. M. Samson       University of Karlsruhe       Germany     (Boys localization, r12 integrals in ERI)
  Alfredo Sanchez de Meras, University of Valencia,       Spain       (CC module, Cholesky decomposition)
  Trond Saue,               Paul Sabatier University,     France      (direct Fock matrix construction)
  Stephan P. A. Sauer,      University of Copenhagen,     Denmark     (SOPPA(CCSD), SOPPA prop., AOSOPPA, vibrational g-factors)
  Andre S. P. Gomes,        CNRS/Universite de Lille,     France      (Frozen density embedding model)
  Bernd Schimmelpfennig,    Forschungszentrum Karlsruhe,  Germany     (AMFI module)
  Kristian Sneskov,         Aarhus University,            Denmark     (Polarizable embedding model, QM/MM)
  Arnfinn H. Steindal,      UiT The Arctic U. of Norway,  Norway      (parallel QM/MM, Polarizable embedding model)
  Casper Steinmann,         Univ. of Southern Denmark,    Denmark     (QFIT, Polarizable embedding model)
  K. O. Sylvester-Hvid,     University of Copenhagen,     Denmark     (MC-SCRF)
  Peter R. Taylor,          VLSCI/Univ. of Melbourne,     Australia   (Symmetry handling ABACUS, integral transformation)
  Andrew M. Teale,          University of Nottingham,     England     (DFT-AC, DFT-D)
  David P. Tew,             University of Bristol,        England     (CCSD(R12))
  Olav Vahtras,             KTH Stockholm,                Sweden      (triplet response, spin-orbit, ESR, TDDFT, open-shell DFT)
  Lucas Visscher,           Vrije Universiteit Amsterdam, Netherlands (Frozen density embedding model)
  David J. Wilson,          La Trobe University,          Australia   (DFT Hessian and DFT magnetizabilities)
  Hans Agren,               KTH Stockholm,                Sweden      (SIRIUS module, RESPONS, MC-SCRF solvation model)
 --------------------------------------------------------------------------------

     Date and time (Linux)  : Wed May 13 13:34:47 2020
     Host name              : s73p20.deic.sdu.dk                      

 * Work memory size             :   307200000 =  2.289 gigabytes.

 * Directories for basis set searches:
   1) /home/salvatore/ECD/Ciclopentanone
   2) /gpfs/gss1/work/sdujk/foeroyingur/Programs/dalton/build/pe/develop/basis


Compilation information
-----------------------

 Who compiled             | foeroyingur
 Host                     | fe1.deic.sdu.dk
 System                   | Linux-3.10.0-327.36.3.el7.x86_64
 CMake generator          | Unix Makefiles
 Processor                | x86_64
 64-bit integers          | OFF
 MPI                      | ON
 Fortran compiler         | /opt/sys/apps/intel/2018.05/impi_latest/intel64/bi
                          | n/mpiifort
 Fortran compiler version | unknown
 C compiler               | /opt/sys/apps/intel/2018.05/impi_latest/intel64/bi
                          | n/mpiicc
 C compiler version       | unknown
 C++ compiler             | /opt/sys/apps/intel/2018.05/impi_latest/intel64/bi
                          | n/mpiicpc
 C++ compiler version     | unknown
 Static linking           | OFF
 Last Git revision        | c988ec84aab2c775c476a86e7d3049a3f15e3f66
 Git branch               | pe/develop
 Configuration time       | 2019-09-25 16:51:26.133160

 * MPI parallel run using 96 processes.


   Content of the .dal input file
 ----------------------------------

**DALTON INPUT
.DIRECT
.RUN RESPONSE
**WAVE fUNCTIONS
.DFT
B3LYP
**INTEGRAL
.ANGMOM
.ROTSTR
.DIPVEL
**RESPONSE
*QUADRATIC
.TPCD
.ROOTS
6
**END OF DALTON INPUT


   Content of the .mol file
 ----------------------------

BASIS
aug-cc-pVDZ
axial.xyz
Generated by Open Babel. Check overall charge below.
AtomTypes=3 Charge=0 NoSymmetry Angstrom
Charge=6.0 Atoms=6
C             0.1347230000   -0.9796830000    0.6794850000
C            -1.1735540000   -0.1946080000    0.4880640000
C            -0.6912280000    1.2774060000    0.4076980000
C             0.6496870000    1.2208910000   -0.3353620000
C             1.2099450000   -0.1682080000   -0.0377130000
C            -1.9269290000   -0.6295780000   -0.7714600000
Charge=8.0 Atoms=1
O             2.3153360000   -0.5566000000   -0.3208480000
Charge=1.0 Atoms=10
H             0.1151050000   -2.0069080000    0.3173120000
H             0.4203090000   -1.0172090000    1.7357270000
H            -1.8340330000   -0.3261870000    1.3458320000
H            -0.5380650000    1.6662650000    1.4165210000
H            -1.4229780000    1.9223710000   -0.0779690000
H             1.3655710000    1.9900060000   -0.0486420000
H             0.5239800000    1.2971220000   -1.4185270000
H            -2.2254340000   -1.6769360000   -0.7060320000
H            -1.3140450000   -0.5208300000   -1.6691530000
H            -2.8289620000   -0.0322200000   -0.9125550000


       *******************************************************************
       *********** Output from DALTON general input processing ***********
       *******************************************************************

 --------------------------------------------------------------------------------
   Overall default print level:    0
   Print level for DALTON.STAT:    1

    Parallel calculation using MPI
    AO-direct calculation (in sections where implemented)
    HERMIT 1- and 2-electron integral sections will be executed
    "Old" integral transformation used (limited to max 255 basis functions)
    Wave function sections will be executed (SIRIUS module)
    Dynamic molecular response properties section will be executed (RESPONSE module)
 --------------------------------------------------------------------------------


   ****************************************************************************
   *************** Output of molecule and basis set information ***************
   ****************************************************************************


    The two title cards from your ".mol" input:
    ------------------------------------------------------------------------
 1: axial.xyz                                                               
 2: Generated by Open Babel. Check overall charge below.                    
    ------------------------------------------------------------------------

  Coordinates are entered in Angstrom and converted to atomic units.
          - Conversion factor : 1 bohr = 0.52917721 A

  Atomic type no.    1
  --------------------
  Nuclear charge:   6.00000
  Number of symmetry independent centers:    6
  Number of basis sets to read;    2
  Basis set file used for this atomic type with Z =   6 :
     "/gpfs/gss1/work/sdujk/foeroyingur/Programs/dalton/build/pe/develop/basis/aug-cc-pVDZ"

  Atomic type no.    2
  --------------------
  Nuclear charge:   8.00000
  Number of symmetry independent centers:    1
  Number of basis sets to read;    2
  Basis set file used for this atomic type with Z =   8 :
     "/gpfs/gss1/work/sdujk/foeroyingur/Programs/dalton/build/pe/develop/basis/aug-cc-pVDZ"

  Atomic type no.    3
  --------------------
  Nuclear charge:   1.00000
  Number of symmetry independent centers:   10
  Number of basis sets to read;    2
  Basis set file used for this atomic type with Z =   1 :
     "/gpfs/gss1/work/sdujk/foeroyingur/Programs/dalton/build/pe/develop/basis/aug-cc-pVDZ"


                         SYMGRP: Point group information
                         -------------------------------

@    Point group: C1 


                                 Isotopic Masses
                                 ---------------

                           C          12.000000
                           C          12.000000
                           C          12.000000
                           C          12.000000
                           C          12.000000
                           C          12.000000
                           O          15.994915
                           H           1.007825
                           H           1.007825
                           H           1.007825
                           H           1.007825
                           H           1.007825
                           H           1.007825
                           H           1.007825
                           H           1.007825
                           H           1.007825
                           H           1.007825

                       Total mass:    98.073165 amu
                       Natural abundance:  93.214 %

 Center-of-mass coordinates (a.u.):    0.147717   -0.024712    0.000366


  Atoms and basis sets
  --------------------

  Number of atom types :    3
  Total number of atoms:   17

  Basis set used is "aug-cc-pVDZ" from the basis set library.

  label    atoms   charge   prim   cont     basis
  ----------------------------------------------------------------------
  C           6    6.0000    35    23      [10s5p2d|4s3p2d]                                   
  O           1    8.0000    35    23      [10s5p2d|4s3p2d]                                   
  H          10    1.0000    11     9      [5s2p|3s2p]                                        
  ----------------------------------------------------------------------
  total:     17   54.0000   355   251
  ----------------------------------------------------------------------
  Spherical harmonic basis used.

  Threshold for neglecting AO integrals:  1.00D-12

  Max    interatomic separation is    5.2047 Angstrom (    9.8355 Bohr)
  between atoms   17 and    7, "H     " and "O     ".

  Min HX interatomic separation is    1.0891 Angstrom (    2.0582 Bohr)

  Min YX interatomic separation is    1.2054 Angstrom (    2.2778 Bohr)


  Bond distances (Angstrom):
  --------------------------

                  atom 1     atom 2       distance
                  ------     ------       --------
  bond distance:  C          C            1.537717
  bond distance:  C          C            1.551104
  bond distance:  C          C            1.534075
  bond distance:  C          C            1.526095
  bond distance:  C          C            1.527115
  bond distance:  C          C            1.530743
  bond distance:  O          C            1.205364
  bond distance:  H          C            1.089378
  bond distance:  H          C            1.094813
  bond distance:  H          C            1.090556
  bond distance:  H          C            1.091968
  bond distance:  H          C            1.089638
  bond distance:  H          C            1.089145
  bond distance:  H          C            1.093096
  bond distance:  H          C            1.091029
  bond distance:  H          C            1.092385
  bond distance:  H          C            1.091058


  Bond angles (degrees):
  ----------------------

                  atom 1     atom 2     atom 3         angle
                  ------     ------     ------         -----
  bond angle:     C          C          C            105.632
  bond angle:     C          C          H            115.132
  bond angle:     C          C          H            111.071
  bond angle:     C          C          H            110.968
  bond angle:     C          C          H            106.729
  bond angle:     H          C          H            107.045
  bond angle:     C          C          C            103.085
  bond angle:     C          C          C            112.091
  bond angle:     C          C          H            110.840
  bond angle:     C          C          C            112.338
  bond angle:     C          C          H            110.095
  bond angle:     C          C          H            108.350
  bond angle:     C          C          C            105.185
  bond angle:     C          C          H            109.493
  bond angle:     C          C          H            112.086
  bond angle:     C          C          H            109.755
  bond angle:     C          C          H            113.136
  bond angle:     H          C          H            107.169
  bond angle:     C          C          C            105.057
  bond angle:     C          C          H            114.898
  bond angle:     C          C          H            112.141
  bond angle:     C          C          H            110.481
  bond angle:     C          C          H            107.383
  bond angle:     H          C          H            106.691
  bond angle:     C          C          C            108.469
  bond angle:     C          C          O            125.816
  bond angle:     C          C          O            125.715
  bond angle:     C          C          H            110.983
  bond angle:     C          C          H            111.824
  bond angle:     C          C          H            110.961
  bond angle:     H          C          H            107.359
  bond angle:     H          C          H            107.887
  bond angle:     H          C          H            107.642




 Principal moments of inertia (u*A**2) and principal axes
 --------------------------------------------------------

   IA     113.519559          0.999215   -0.034599   -0.019310
   IB     231.538413          0.034759    0.999363    0.008031
   IC     277.746377          0.019019   -0.008696    0.999781


 Rotational constants
 --------------------

               A                   B                   C

           4451.9113           2182.7005           1819.5701 MHz
            0.148500            0.072807            0.060694 cm-1


@  Nuclear repulsion energy :  309.145801575768 Hartree


                     .---------------------------------------.
                     | Starting in Integral Section (HERMIT) |
                     `---------------------------------------'



 ***************************************************************************************
 ****************** Output from **INTEGRALS input processing (HERMIT) ******************
 ***************************************************************************************



    *************************************************************************
    ****************** Output from HERMIT input processing ******************
    *************************************************************************


 Default print level:        1

 Calculation of one-electron Hamiltonian integrals.

 The following one-electron property integrals are calculated as requested:
          - overlap integrals
          - dipole velocity integrals
          - electronic angular momentum around the origin
          - Rotational strength integrals

 Center of mass  (bohr):      0.147716905319     -0.024712253485      0.000365807034
 Operator center (bohr):      0.000000000000      0.000000000000      0.000000000000
 Gauge origin    (bohr):      0.000000000000      0.000000000000      0.000000000000
 Dipole origin   (bohr):      0.000000000000      0.000000000000      0.000000000000


     ************************************************************************
     ************************** Output from HERINT **************************
     ************************************************************************



                      Nuclear contribution to dipole moments
                      --------------------------------------

                 au               Debye          C m (/(10**-30)

      x      0.00000000         0.00000000         0.00000000
      y     -0.00001134        -0.00002882        -0.00009613
      z      0.00000378         0.00000961         0.00003204


  Time used in ONEDRV     is       0.13 seconds
  Time used in GABGEN     is       0.15 seconds
  Total CPU  time used in HERMIT:   0.87 seconds
  Total wall time used in HERMIT:   0.92 seconds


                        .----------------------------------.
                        | End of Integral Section (HERMIT) |
                        `----------------------------------'



                   .--------------------------------------------.
                   | Starting in Wave Function Section (SIRIUS) |
                   `--------------------------------------------'


 *** Output from Huckel module :

     Using EWMO model:          T
     Using EHT  model:          F
     Number of Huckel orbitals each symmetry:   45

 EWMO - Energy Weighted Maximum Overlap - is a Huckel type method,
        which normally is better than Extended Huckel Theory.
 Reference: Linderberg and Ohrn, Propagators in Quantum Chemistry (Wiley, 1973)

 Huckel EWMO eigenvalues for symmetry :  1
          -20.684899     -11.363068     -11.352930     -11.350965     -11.349213
          -11.347356     -11.346420      -2.085513      -1.670836      -1.509787
           -1.370101      -1.193692      -0.955014      -0.902822      -0.848479
           -0.751103      -0.721029      -0.658738      -0.645529      -0.596216
           -0.589092      -0.528340      -0.478636      -0.446264      -0.443288
           -0.428904      -0.402704      -0.273319      -0.166382      -0.148227
           -0.142236      -0.140811      -0.135237      -0.130683      -0.125044
           -0.123842      -0.121656      -0.117869      -0.114250      -0.112581
           -0.111116      -0.108263      -0.106143      -0.104861      -0.103642

 **********************************************************************
 *SIRIUS* a direct, restricted step, second order MCSCF program       *
 **********************************************************************

 
     Date and time (Linux)  : Wed May 13 13:34:49 2020
     Host name              : s73p20.deic.sdu.dk                      

 Title lines from ".mol" input file:
     axial.xyz                                                               
     Generated by Open Babel. Check overall charge below.                    

 Print level on unit LUPRI =   2 is   0
 Print level on unit LUW4  =   2 is   5

@    Restricted, closed shell Kohn-Sham DFT calculation.

@    Time-dependent Kohn-Sham DFT calculation (TD-DFT).
 Fock matrices are calculated directly and in parallel without use of integrals on disk.

 Initial molecular orbitals are obtained according to
 ".MOSTART EWMO  " input option

     Wave function specification
     ============================
@    Wave function type        --- KS-DFT ---
@    Number of closed shell electrons          54
@    Number of electrons in active shells       0
@    Total charge of the molecule               0

@    Spin multiplicity and 2 M_S                1         0
@    Total number of symmetries                 1 (point group: C1 )
@    Reference state symmetry                   1 (irrep name : A  )
 
     This is a DFT calculation of type: B3LYP
 Weighted mixed functional:
               HF exchange:    0.20000
                       VWN:    0.19000
                       LYP:    0.81000
                     Becke:    0.72000
                    Slater:    0.80000

     Orbital specifications
     ======================
@    Abelian symmetry species          All |    1
@                                          |  A  
                                       --- |  ---
@    Occupied SCF orbitals              27 |   27
@    Secondary orbitals                224 |  224
@    Total number of orbitals          251 |  251
@    Number of basis functions         251 |  251

     Optimization information
     ========================
@    Number of configurations                 1
@    Number of orbital rotations           6048
     ------------------------------------------
@    Total number of variables             6049

     Maximum number of Fock   iterations      0
     Maximum number of DIIS   iterations     60
     Maximum number of QC-SCF iterations     60
     Threshold for SCF convergence     1.00D-05
 
     This is a DFT calculation of type: B3LYP
 Weighted mixed functional:
               HF exchange:    0.20000
                       VWN:    0.19000
                       LYP:    0.81000
                     Becke:    0.72000
                    Slater:    0.80000


 ***********************************************
 ***** DIIS acceleration of SCF iterations *****
 ***********************************************

 C1-DIIS algorithm; max error vectors =    8

 Iter      Total energy        Error norm    Delta(E)  DIIS dim.
 -----------------------------------------------------------------------------
   1  Screening settings (-IFTHRS, JTDIIS, DIFDEN, times)   -8    1    F  1.05D+00  1.05D+00
      K-S energy, electrons, error :    -35.364414951981  53.9999611020   -3.89D-05
@  1    -308.415120257        4.56819D+00   -3.08D+02    1
      Virial theorem: -V/T =      2.014773
@    MULPOP   C       0.20; C      -0.24; C       0.37; C       0.09; C       1.10; C       0.37; O      -1.23; H      -0.08; H      -0.00; H      -0.15; 
@             H      -0.12; H      -0.12; H      -0.05; H      -0.00; H      -0.04; H      -0.05; H      -0.05; 
   1  Level shift: doubly occupied orbital energies shifted by -2.00D-01
 -----------------------------------------------------------------------------
   2  Screening settings (-IFTHRS, JTDIIS, DIFDEN, times)   -9    2    F  4.82D-01  4.82D-01
      K-S energy, electrons, error :    -36.436465699067  53.9999824752   -1.75D-05
@  2    -308.005783420        5.79770D+00    4.09D-01    2
      Virial theorem: -V/T =      1.994140
@    MULPOP   C       0.77; C      -0.04; C       1.22; C       0.45; C      -1.51; C       0.74; O       1.32; H      -0.31; H      -0.27; H      -0.54; 
@             H      -0.41; H      -0.37; H      -0.27; H      -0.25; H      -0.21; H      -0.11; H      -0.21; 
   2  Level shift: doubly occupied orbital energies shifted by -2.00D-01
 -----------------------------------------------------------------------------
   3  Screening settings (-IFTHRS, JTDIIS, DIFDEN, times)   -9    3    F  4.82D-01  4.82D-01
      K-S energy, electrons, error :    -36.464642893667  53.9999848196   -1.52D-05
@  3    -309.653844136        1.02690D+00   -1.65D+00    3
      Virial theorem: -V/T =      1.998115
@    MULPOP   C       0.97; C      -0.03; C       1.29; C       0.63; C       0.15; C       0.79; O      -0.51; H      -0.37; H      -0.30; H      -0.56; 
@             H      -0.44; H      -0.39; H      -0.32; H      -0.29; H      -0.23; H      -0.13; H      -0.25; 
   3  Level shift: doubly occupied orbital energies shifted by -5.00D-02
 -----------------------------------------------------------------------------
   4  Screening settings (-IFTHRS, JTDIIS, DIFDEN, times)   -9    4    F  5.00D-01  5.01D-01
      K-S energy, electrons, error :    -36.032281092464  53.9999848866   -1.51D-05
@  4    -309.707882245        5.48424D-01   -5.40D-02    4
      Virial theorem: -V/T =      2.008958
@    MULPOP   C       1.15; C       0.21; C       1.53; C       0.82; C       0.00; C       1.10; O      -0.53; H      -0.46; H      -0.38; H      -0.68; 
@             H      -0.53; H      -0.50; H      -0.41; H      -0.38; H      -0.35; H      -0.24; H      -0.36; 
   4  Level shift: doubly occupied orbital energies shifted by -5.00D-02
 -----------------------------------------------------------------------------
   5  Screening settings (-IFTHRS, JTDIIS, DIFDEN, times)  -10    5    F  4.79D-01  4.79D-01
      K-S energy, electrons, error :    -36.162222739209  53.9999850150   -1.50D-05
@  5    -309.724452558        9.51256D-02   -1.66D-02    5
      Virial theorem: -V/T =      2.005649
@    MULPOP   C       1.15; C       0.14; C       1.49; C       0.80; C       0.08; C       1.03; O      -0.61; H      -0.44; H      -0.37; H      -0.65; 
@             H      -0.52; H      -0.48; H      -0.39; H      -0.36; H      -0.32; H      -0.22; H      -0.34; 
   5  Level shift: doubly occupied orbital energies shifted by -1.25D-02
 -----------------------------------------------------------------------------
   6  Screening settings (-IFTHRS, JTDIIS, DIFDEN, times)  -10    6    F  4.81D-01  4.81D-01
      K-S energy, electrons, error :    -36.166413320050  53.9999853268   -1.47D-05
@  6    -309.724891915        2.90415D-02   -4.39D-04    6
      Virial theorem: -V/T =      2.005569
@    MULPOP   C       1.13; C       0.16; C       1.48; C       0.78; C       0.06; C       1.01; O      -0.59; H      -0.44; H      -0.36; H      -0.64; 
@             H      -0.51; H      -0.48; H      -0.38; H      -0.35; H      -0.32; H      -0.22; H      -0.34; 
 -----------------------------------------------------------------------------
   7  Screening settings (-IFTHRS, JTDIIS, DIFDEN, times)  -11    7    F  4.77D-01  4.77D-01
      K-S energy, electrons, error :    -36.164646032497  53.9999852651   -1.47D-05
@  7    -309.724934487        9.27136D-03   -4.26D-05    7
      Virial theorem: -V/T =      2.005621
@    MULPOP   C       1.13; C       0.15; C       1.48; C       0.79; C       0.06; C       1.02; O      -0.58; H      -0.44; H      -0.36; H      -0.64; 
@             H      -0.51; H      -0.47; H      -0.38; H      -0.35; H      -0.32; H      -0.22; H      -0.34; 
 -----------------------------------------------------------------------------
   8  Screening settings (-IFTHRS, JTDIIS, DIFDEN, times)  -11    8    F  5.02D-01  5.03D-01
      K-S energy, electrons, error :    -36.164891780997  53.9999852943   -1.47D-05
@  8    -309.724939409        2.02206D-03   -4.92D-06    8
      Virial theorem: -V/T =      2.005616
@    MULPOP   C       1.13; C       0.16; C       1.48; C       0.78; C       0.06; C       1.02; O      -0.58; H      -0.44; H      -0.36; H      -0.64; 
@             H      -0.51; H      -0.47; H      -0.38; H      -0.35; H      -0.32; H      -0.22; H      -0.34; 
 -----------------------------------------------------------------------------
   9  Screening settings (-IFTHRS, JTDIIS, DIFDEN, times)  -12    9    F  5.09D-01  5.08D-01
      K-S energy, electrons, error :    -36.164872217288  53.9999852923   -1.47D-05
@  9    -309.724939663        5.02456D-04   -2.54D-07    8
      Virial theorem: -V/T =      2.005616
@    MULPOP   C       1.13; C       0.15; C       1.48; C       0.78; C       0.06; C       1.02; O      -0.58; H      -0.44; H      -0.36; H      -0.64; 
@             H      -0.51; H      -0.47; H      -0.38; H      -0.35; H      -0.32; H      -0.22; H      -0.34; 
 -----------------------------------------------------------------------------
  10  Screening settings (-IFTHRS, JTDIIS, DIFDEN, times)  -12   10    F  4.84D-01  4.83D-01
      K-S energy, electrons, error :    -36.164877296015  53.9999852926   -1.47D-05
@ 10    -309.724939679        8.57838D-05   -1.63D-08    8
      Virial theorem: -V/T =      2.005616
@    MULPOP   C       1.13; C       0.15; C       1.48; C       0.78; C       0.06; C       1.02; O      -0.58; H      -0.44; H      -0.36; H      -0.64; 
@             H      -0.51; H      -0.47; H      -0.38; H      -0.35; H      -0.32; H      -0.22; H      -0.34; 
 -----------------------------------------------------------------------------
  11  Screening settings (-IFTHRS, JTDIIS, DIFDEN, times)  -12   11    F  4.76D-01  4.76D-01
      K-S energy, electrons, error :    -36.164876337052  53.9999852925   -1.47D-05
@ 11    -309.724939679        3.55625D-05   -4.10D-10    8
      Virial theorem: -V/T =      2.005616
@    MULPOP   C       1.13; C       0.15; C       1.48; C       0.78; C       0.06; C       1.02; O      -0.58; H      -0.44; H      -0.36; H      -0.64; 
@             H      -0.51; H      -0.47; H      -0.38; H      -0.35; H      -0.32; H      -0.22; H      -0.34; 
 -----------------------------------------------------------------------------
  12  Screening settings (-IFTHRS, JTDIIS, DIFDEN, times)  -12   12    F  4.75D-01  4.75D-01
      K-S energy, electrons, error :    -36.164876409916  53.9999852925   -1.47D-05
@ 12    -309.724939680        8.51314D-06   -7.76D-11    8

@ *** DIIS converged in  12 iterations !
@     Converged SCF energy, gradient:   -309.724939679540    8.51D-06
    - total time used in SIRFCK :              0.00 seconds


 *** SCF orbital energy analysis ***

 Only the 20 lowest virtual orbital energies printed in each symmetry.

 Number of electrons :   54
 Orbital occupations :   27

 Sym       Kohn-Sham orbital energies

1 A     -19.13687473   -10.27108361   -10.19687413   -10.18935744   -10.18858503
        -10.18781745   -10.18047363    -1.04851418    -0.85111734    -0.74914493
         -0.71708096    -0.66396341    -0.57083517    -0.53679372    -0.49466029
         -0.47409113    -0.44669441    -0.42457683    -0.41798581    -0.40588104
         -0.39804817    -0.38006358    -0.35172347    -0.34083882    -0.33569231
         -0.33229422    -0.24465089    -0.02818982    -0.01443013     0.00683963
          0.00739917     0.01129775     0.03078459     0.03203056     0.03311243
          0.03873293     0.04646640     0.06568575     0.06864473     0.07060429
          0.08425790     0.08855454     0.09071235     0.09600882     0.09925147
          0.10431751     0.10705859

    E(LUMO) :    -0.02818982 au (symmetry 1)
  - E(HOMO) :    -0.24465089 au (symmetry 1)
  ------------------------------------------
    gap     :     0.21646107 au

 --- Writing SIRIFC interface file

 CPU and wall time for SCF :      11.260      11.334


                       .-----------------------------------.
                       | --- Final results from SIRIUS --- |
                       `-----------------------------------'


@    Spin multiplicity:           1
@    Spatial symmetry:            1 ( irrep  A   in C1  )
@    Total charge of molecule:    0

@    Final DFT energy:           -309.724939679540                 
@    Nuclear repulsion:           309.145801575768
@    Electronic energy:          -618.870741255308

@    Final gradient norm:           0.000008513143

 
     Date and time (Linux)  : Wed May 13 13:35:01 2020
     Host name              : s73p20.deic.sdu.dk                      

File label for MO orbitals:  13May20   FOCKDIIS

 (Only coefficients > 0.0100 are printed.)

 Molecular orbitals for symmetry species 1  (A  )
 ------------------------------------------------

    Orbital        18       19       20       21       22       23       24
   2 C   :1s    -0.0638   0.0072  -0.0565   0.0054   0.0124  -0.1365  -0.0703
   3 C   :1s     0.0036   0.0444   0.0461   0.0580  -0.1889  -0.2061  -0.1988
   4 C   :1s     0.3180  -0.1796   0.1433  -0.1921  -0.2147  -0.0934   0.1229
   5 C   :2px    0.1941  -0.0827  -0.0089   0.0326  -0.1658   0.2440   0.1491
   6 C   :2py    0.0987  -0.0041   0.2658  -0.0441  -0.2017  -0.3869   0.0090
   7 C   :2pz   -0.2547   0.0910   0.1420  -0.1591   0.0605  -0.0064   0.2426
   8 C   :2px    0.1562  -0.0826   0.0214   0.0696  -0.0935  -0.0939  -0.1407
   9 C   :2py   -0.1110  -0.0011  -0.2002   0.0798   0.0442   0.1024  -0.1649
  10 C   :2pz    0.0772  -0.0259  -0.0346   0.0739   0.0593   0.1182  -0.0192
  11 C   :2px   -0.0408   0.0314  -0.0501   0.0486   0.0110  -0.0320  -0.0010
  12 C   :2py    0.0853  -0.0346  -0.0048  -0.0068  -0.0517  -0.0243  -0.0275
  13 C   :2pz    0.0095   0.0006  -0.0616   0.0449   0.0562   0.0634  -0.0565
  14 C   :3d2-   0.0107  -0.0047  -0.0046  -0.0036  -0.0092   0.0083   0.0069
  16 C   :3d0   -0.0076  -0.0022   0.0027  -0.0013  -0.0003  -0.0039   0.0144
  17 C   :3d1+  -0.0066   0.0113  -0.0036  -0.0099   0.0048  -0.0027  -0.0004
  18 C   :3d2+   0.0068   0.0021   0.0116  -0.0041  -0.0053  -0.0095   0.0097
  19 C   :3d2-   0.0589   0.0079   0.0117   0.0316  -0.0333  -0.0512  -0.0394
  20 C   :3d1-   0.0344   0.0026   0.0790  -0.0161  -0.0397  -0.0322   0.0347
  21 C   :3d0    0.0465  -0.0272  -0.0045   0.0249  -0.0127   0.0149  -0.0233
  22 C   :3d1+   0.0077   0.0358  -0.0377  -0.0053   0.0269  -0.0170   0.0130
  23 C   :3d2+   0.0462  -0.0331  -0.0247   0.0292   0.0089   0.0012  -0.0203
  25 C   :1s     0.0857   0.1117   0.0311   0.0283  -0.0068  -0.0227  -0.0306
  26 C   :1s     0.1307  -0.0348   0.0922   0.0201  -0.0076  -0.1525  -0.1529
  27 C   :1s    -0.5060   0.5964  -0.0929   0.2205  -0.0665  -0.3951   0.0661
  28 C   :2px   -0.1786   0.1177   0.1296   0.0340   0.1057  -0.3432  -0.3261
  29 C   :2py   -0.0487   0.0251  -0.0283   0.1556   0.0327   0.1942  -0.1963
  30 C   :2pz   -0.1243  -0.2286   0.1918   0.1303  -0.0444   0.0564  -0.0179
  31 C   :2px    0.3035  -0.0316   0.0996   0.0396  -0.0906   0.1361   0.2085
  32 C   :2py    0.0670   0.0252   0.0188  -0.0227   0.0227  -0.0680   0.1109
  33 C   :2pz    0.0904   0.0776  -0.1032  -0.0630   0.0241  -0.0902   0.0034
  34 C   :2px   -0.1821   0.1009   0.0229   0.0870  -0.0588  -0.0546   0.0088
  35 C   :2py   -0.0507   0.0200   0.0407   0.0099  -0.0680   0.0464   0.0069
  36 C   :2pz   -0.0467  -0.0542   0.0104  -0.0072  -0.0111   0.0837  -0.0125
  37 C   :3d2-   0.0069  -0.0047   0.0066  -0.0029   0.0073   0.0135   0.0035
  39 C   :3d0   -0.0006   0.0068   0.0006   0.0037  -0.0068   0.0109   0.0167
  40 C   :3d1+  -0.0034   0.0067  -0.0026  -0.0020   0.0042  -0.0105  -0.0003
  41 C   :3d2+   0.0089  -0.0051   0.0036   0.0012   0.0030  -0.0107   0.0050
  42 C   :3d2-   0.0208   0.0018   0.0315  -0.0118   0.0051  -0.0278   0.0027
  43 C   :3d1-  -0.0101  -0.0564   0.0142   0.0108  -0.0166   0.0493  -0.0555
  44 C   :3d0   -0.1093   0.0727  -0.0225   0.0198  -0.0214  -0.0306  -0.0311
  45 C   :3d1+  -0.0113  -0.0646  -0.0241  -0.0048   0.0180  -0.0247  -0.0439
  46 C   :3d2+   0.0371   0.0220   0.0024   0.0207   0.0358  -0.0206   0.0177
  48 C   :1s    -0.0557  -0.0166  -0.0005  -0.0593   0.0845   0.0388  -0.0280
  49 C   :1s    -0.1348   0.0236  -0.0816  -0.0361   0.1351   0.1177   0.0328
  50 C   :1s     0.4942  -0.0353   0.1565   0.0889   0.3284   0.2385  -0.0731
  51 C   :2px    0.1492  -0.0259   0.1485   0.0402   0.3997   0.1687   0.2103
  52 C   :2py    0.0031  -0.0700  -0.0586  -0.1292  -0.2093  -0.1824   0.2218
  53 C   :2pz   -0.0913  -0.0898  -0.0035   0.3596  -0.1251   0.0913  -0.1529
  54 C   :2px   -0.1610  -0.0395  -0.1009  -0.1805  -0.1192  -0.0858  -0.0176
  55 C   :2py    0.1602   0.0417   0.1166   0.0895   0.0835   0.0463   0.0032
  56 C   :2pz    0.0662   0.1348   0.0333  -0.1733  -0.0104  -0.1133   0.0704
  57 C   :2px    0.0689   0.0383   0.0356  -0.0256   0.0225   0.0132   0.0259
  58 C   :2py   -0.0681   0.0179  -0.0112   0.0021  -0.0780  -0.0448   0.0122
  59 C   :2pz   -0.0085  -0.0141  -0.0271  -0.0681  -0.0370  -0.0862   0.0233
  60 C   :3d2-   0.0085   0.0043   0.0024   0.0121   0.0015   0.0097  -0.0011
  63 C   :3d1+  -0.0024   0.0053  -0.0088  -0.0002  -0.0106  -0.0105  -0.0023
  64 C   :3d2+   0.0071  -0.0028  -0.0033  -0.0060   0.0035   0.0065   0.0165
  65 C   :3d2-   0.0325   0.0211   0.0090  -0.0267  -0.0127  -0.0239   0.0174
  66 C   :3d1-   0.0110  -0.0163  -0.0177  -0.0666  -0.0255  -0.0322  -0.0108
  67 C   :3d0    0.0360   0.0018   0.0231  -0.0130   0.0202   0.0135   0.0074
  68 C   :3d1+   0.0498   0.0236   0.0210   0.0254   0.0384   0.0294   0.0061
  69 C   :3d2+   0.0146   0.0068   0.0227   0.0027   0.0071  -0.0087   0.0049
  71 C   :1s     0.0811  -0.0102   0.0333   0.0099   0.0749   0.0834   0.0558
  72 C   :1s     0.0077  -0.0393  -0.1050  -0.0654   0.1684   0.1675   0.1946
  73 C   :1s    -0.2345  -0.1841  -0.2348  -0.1952  -0.1110  -0.0452   0.1851
  74 C   :2px   -0.0492   0.1204  -0.2411   0.1620  -0.3373  -0.1838  -0.1403
  75 C   :2py    0.2772   0.2219   0.1637   0.1518  -0.0084  -0.2097  -0.0591
  76 C   :2pz    0.1857   0.1556  -0.2250  -0.0757   0.1869  -0.0313   0.2807
  77 C   :2px   -0.1576  -0.1875  -0.0328  -0.1521   0.1144   0.1244   0.1113
  78 C   :2py   -0.0710  -0.0319   0.0549  -0.0317  -0.0581  -0.0417  -0.0449
  79 C   :2pz   -0.0363  -0.0801   0.1262   0.0913  -0.0403   0.0836  -0.1051
  80 C   :2px    0.0283   0.0083   0.0605   0.0222   0.0064   0.0637  -0.0480
  81 C   :2py    0.0048   0.0203   0.0592   0.0174   0.0172  -0.0103  -0.0598
  82 C   :2pz   -0.0690  -0.0340  -0.0251  -0.0153  -0.0003   0.0459   0.0053
  83 C   :3d2-   0.0131   0.0063   0.0040   0.0118   0.0028  -0.0034  -0.0064
  85 C   :3d0   -0.0015  -0.0048   0.0133   0.0072  -0.0012   0.0110  -0.0090
  86 C   :3d1+  -0.0000   0.0044  -0.0040  -0.0029  -0.0112  -0.0033  -0.0051
  87 C   :3d2+   0.0042   0.0088   0.0071  -0.0060   0.0112   0.0015  -0.0020
  88 C   :3d2-  -0.0059   0.0044   0.0581   0.0239  -0.0032   0.0132  -0.0403
  89 C   :3d1-  -0.0384  -0.0300  -0.0198  -0.0134   0.0244   0.0395   0.0270
  90 C   :3d0    0.0214   0.0268  -0.0346   0.0110  -0.0042  -0.0299   0.0242
  91 C   :3d1+  -0.0517  -0.0168  -0.0285  -0.0605   0.0172   0.0240   0.0565
  92 C   :3d2+   0.0175   0.0204   0.0181  -0.0076  -0.0331  -0.0459   0.0011
  94 C   :1s    -0.0005  -0.0171  -0.0033  -0.0433  -0.0858   0.0021   0.0601
  95 C   :1s    -0.0345   0.1479   0.1717  -0.0570   0.0674  -0.0455   0.0937
  96 C   :1s     0.0003   0.0421   0.1391   0.0972   0.2595   0.1116  -0.2393
  97 C   :2px   -0.1508   0.3467   0.1709  -0.0923   0.2834   0.0278  -0.1299
  98 C   :2py   -0.3122  -0.0052  -0.3386  -0.2150  -0.0280   0.1146  -0.0100
  99 C   :2pz    0.2952   0.1445   0.0252  -0.1520  -0.1735   0.1426  -0.1864
 100 C   :2px    0.0748  -0.0954  -0.0812   0.0985  -0.1152   0.0044  -0.0781
 101 C   :2py    0.2216   0.0218   0.2004   0.1533  -0.1489  -0.1834  -0.1853
 102 C   :2pz   -0.1555  -0.0409  -0.0449  -0.0380   0.1336   0.0854   0.1366
 103 C   :2px   -0.0043   0.0225  -0.0117  -0.0240  -0.0308  -0.0464   0.0511
 104 C   :2py   -0.0336   0.0332   0.0021   0.0333  -0.0082  -0.0578   0.0187
 105 C   :2pz    0.0125   0.0087   0.0129  -0.0049  -0.0152  -0.0136   0.0057
 106 C   :3d2-  -0.0046  -0.0002  -0.0199   0.0013  -0.0170  -0.0063  -0.0132
 107 C   :3d1-   0.0045   0.0020   0.0002   0.0045   0.0106  -0.0094   0.0120
 108 C   :3d0   -0.0083  -0.0098   0.0005   0.0025  -0.0090  -0.0047   0.0128
 109 C   :3d1+   0.0097   0.0011  -0.0034  -0.0059  -0.0093   0.0227  -0.0186
 110 C   :3d2+  -0.0089   0.0121   0.0132  -0.0138   0.0117  -0.0090  -0.0144
 111 C   :3d2-  -0.0372   0.0406  -0.0059   0.0060   0.0546   0.0412   0.0314
 112 C   :3d1-   0.0234  -0.0347  -0.0339  -0.0058  -0.0065   0.0052   0.0010
 113 C   :3d0   -0.0250  -0.0058   0.0108  -0.0185   0.0044   0.0225   0.0123
 114 C   :3d1+   0.0144   0.0125   0.0156   0.0270  -0.0323  -0.0419  -0.0385
 115 C   :3d2+   0.0029  -0.0859  -0.0283  -0.0314   0.0044   0.0031   0.0474
 117 C   :1s    -0.0015   0.0093   0.0066  -0.0024   0.0040   0.0009   0.0455
 118 C   :1s     0.1503   0.0443  -0.0425  -0.0547   0.0077   0.0238   0.1436
 119 C   :1s    -0.1101  -0.1100  -0.0021  -0.0108  -0.0726   0.1497  -0.0355
 120 C   :2px   -0.0528   0.3632   0.0697  -0.0095  -0.2871   0.2146   0.2788
 121 C   :2py    0.0345   0.2114  -0.2825   0.3041   0.1450  -0.0489   0.1041
 122 C   :2pz    0.2815  -0.1004  -0.1515  -0.2636   0.0882  -0.0486   0.0478
 123 C   :2px    0.1212  -0.1853  -0.0833  -0.0302   0.1860  -0.1499  -0.0995
 124 C   :2py    0.0413  -0.1210   0.1501  -0.1897  -0.0892   0.0773  -0.0382
 125 C   :2pz   -0.0332   0.1348   0.0538   0.1127  -0.0853   0.0655   0.1389
 126 C   :2px    0.0068  -0.0345  -0.0387  -0.0033   0.0178   0.0182  -0.0220
 127 C   :2py   -0.0121  -0.0234   0.0265  -0.0563  -0.0262  -0.0086   0.0060
 128 C   :2pz   -0.0328  -0.0070   0.0147   0.0222  -0.0281   0.0344   0.0104
 131 C   :3d0    0.0014   0.0072   0.0008   0.0034  -0.0090   0.0107   0.0163
 132 C   :3d1+   0.0088  -0.0011  -0.0062  -0.0076   0.0075  -0.0107  -0.0041
 134 C   :3d2-   0.0289  -0.0279  -0.0366   0.0365   0.0388  -0.0274  -0.0217
 135 C   :3d1-   0.0114  -0.0102   0.0206  -0.0067  -0.0257   0.0207  -0.0011
 136 C   :3d0    0.0141  -0.0097  -0.0098  -0.0109   0.0063  -0.0113   0.0074
 137 C   :3d1+  -0.0038   0.0412   0.0117   0.0133  -0.0141   0.0090   0.0319
 138 C   :3d2+   0.0172  -0.0420   0.0224  -0.0562   0.0143  -0.0141  -0.0280
 140 O   :1s     0.0462  -0.1103  -0.0873   0.0010  -0.0584   0.0026   0.0061
 141 O   :1s     0.0100  -0.0396  -0.0461   0.0061  -0.0554   0.0123   0.0012
 142 O   :1s     0.0178  -0.0418  -0.0899  -0.0055  -0.1244   0.0010   0.0505
 143 O   :2px    0.0666  -0.1892  -0.3392  -0.1060  -0.3038   0.1465  -0.1184
 144 O   :2py   -0.3287   0.2003  -0.1380  -0.2176   0.1242   0.0115  -0.1654
 145 O   :2pz    0.2150   0.2801   0.1436  -0.1931  -0.0325   0.2842  -0.3993
 146 O   :2px   -0.0212   0.0626   0.0642  -0.0004   0.0641  -0.0093  -0.0022
 147 O   :2py    0.0218  -0.0259  -0.0148   0.0017  -0.0190   0.0117   0.0135
 148 O   :2pz   -0.0050  -0.0250  -0.0191   0.0045  -0.0118  -0.0028   0.0121
 149 O   :2px    0.0003  -0.0102  -0.0005  -0.0028   0.0073   0.0168  -0.0295
 150 O   :2py   -0.0045   0.0062  -0.0125  -0.0229  -0.0008   0.0050  -0.0160
 151 O   :2pz    0.0079   0.0118   0.0025  -0.0180  -0.0017   0.0377  -0.0316
 152 O   :3d2-   0.0106  -0.0066   0.0017   0.0054  -0.0058  -0.0001   0.0025
 156 O   :3d2+   0.0020   0.0015   0.0103   0.0053   0.0056  -0.0044   0.0042
 157 O   :3d2-   0.0045   0.0050   0.0144   0.0053   0.0018  -0.0073  -0.0031
 159 O   :3d0    0.0021   0.0121   0.0063  -0.0006   0.0057   0.0008  -0.0055
 160 O   :3d1+  -0.0100   0.0015   0.0032   0.0039   0.0099  -0.0044   0.0081
 161 O   :3d2+   0.0073  -0.0096  -0.0044   0.0083  -0.0100  -0.0038   0.0009
 162 H   :1s    -0.0570  -0.0293  -0.3444   0.1011   0.1903   0.3308  -0.1686
 163 H   :1s     0.0093  -0.1174  -0.1668   0.1247   0.0861   0.0717  -0.1444
 164 H   :1s     0.0309   0.0061  -0.0361   0.0272  -0.0166   0.0190  -0.0451
 168 H   :2px    0.0055   0.0145   0.0031   0.0075  -0.0066  -0.0247  -0.0019
 169 H   :2py   -0.0115  -0.0364  -0.0654   0.0342   0.0450   0.0329  -0.0364
 170 H   :2pz    0.0196  -0.0118  -0.0039   0.0155  -0.0082  -0.0011  -0.0162
 171 H   :1s    -0.2517   0.0775   0.0888  -0.1490   0.0322  -0.0062   0.2796
 172 H   :1s    -0.0269   0.0145   0.0153  -0.0735  -0.0618  -0.0743  -0.0060
 173 H   :1s    -0.0088  -0.0143   0.0362  -0.0388  -0.0213  -0.0315   0.0442
 177 H   :2px   -0.0089  -0.0028   0.0083   0.0157   0.0001   0.0180  -0.0056
 178 H   :2py   -0.0078  -0.0054  -0.0278  -0.0042   0.0156   0.0115   0.0010
 179 H   :2pz    0.0135  -0.0109  -0.0189   0.0296   0.0292   0.0203  -0.0092
 180 H   :1s     0.0700  -0.1990   0.1024   0.0856  -0.1155   0.2483   0.2238
 181 H   :1s     0.1303  -0.1334   0.0553  -0.0085   0.0026   0.1341   0.0166
 182 H   :1s    -0.0109   0.0299   0.0119   0.0271  -0.0186  -0.0391   0.0179
 186 H   :2px    0.0447  -0.0303   0.0215   0.0038   0.0107   0.0410   0.0226
 187 H   :2py    0.0138   0.0007   0.0076  -0.0143   0.0024  -0.0118   0.0151
 188 H   :2pz   -0.0051   0.0032  -0.0192  -0.0169   0.0236  -0.0426  -0.0210
 189 H   :1s    -0.1039  -0.1227  -0.0016   0.2691  -0.1004   0.0799  -0.0556
 190 H   :1s    -0.1050  -0.0825  -0.0752   0.1233   0.0221   0.0753  -0.0383
 191 H   :1s     0.0120   0.0072   0.0024   0.0411   0.0367   0.0489  -0.0297
 195 H   :2px   -0.0106  -0.0068   0.0052  -0.0079  -0.0126  -0.0053  -0.0060
 196 H   :2py    0.0022   0.0243   0.0212  -0.0037   0.0059  -0.0021   0.0075
 197 H   :2pz    0.0302   0.0279   0.0129  -0.0630  -0.0088  -0.0332   0.0094
 198 H   :1s    -0.0982   0.0063  -0.1494  -0.3102  -0.3052  -0.2888   0.0439
 199 H   :1s    -0.0872  -0.0319  -0.0276  -0.2603  -0.0935  -0.1304  -0.0229
 200 H   :1s     0.0173   0.0060   0.0026  -0.0450  -0.0009  -0.0257   0.0293
 204 H   :2px   -0.0202  -0.0002  -0.0041  -0.0617  -0.0299  -0.0401  -0.0104
 205 H   :2py    0.0282   0.0164   0.0145   0.0640   0.0312   0.0295   0.0071
 206 H   :2pz   -0.0006   0.0010   0.0009  -0.0312  -0.0051  -0.0070   0.0024
 207 H   :1s     0.2739   0.2770  -0.0914   0.2113  -0.1466  -0.2636  -0.0385
 208 H   :1s     0.0845   0.0488  -0.0443  -0.0125  -0.0112  -0.0706  -0.0135
 209 H   :1s     0.0245  -0.0107  -0.0384   0.0085  -0.0048  -0.0268   0.0254
 213 H   :2px   -0.0211  -0.0240   0.0035  -0.0023   0.0164   0.0301   0.0064
 214 H   :2py   -0.0268  -0.0167   0.0035  -0.0079   0.0054   0.0140   0.0192
 215 H   :2pz    0.0040   0.0005   0.0251   0.0081  -0.0073  -0.0069  -0.0232
 216 H   :1s    -0.1103  -0.1599   0.3023   0.0932  -0.1202   0.1064  -0.2731
 217 H   :1s    -0.0222  -0.0686   0.0245   0.0627   0.0221   0.1229  -0.0473
 218 H   :1s    -0.0351  -0.0140  -0.0131  -0.0123  -0.0124   0.0315  -0.0219
 222 H   :2px   -0.0116   0.0034  -0.0024  -0.0179   0.0025   0.0065   0.0209
 223 H   :2py   -0.0116  -0.0026  -0.0068  -0.0049   0.0084   0.0145   0.0136
 224 H   :2pz   -0.0200  -0.0346   0.0186   0.0305  -0.0002   0.0426  -0.0183
 225 H   :1s    -0.0007  -0.3052   0.2449  -0.3238  -0.0524  -0.0055  -0.1781
 226 H   :1s     0.0656  -0.0569   0.0546  -0.1636  -0.0034   0.0242  -0.0517
 227 H   :1s    -0.0175  -0.0278   0.0175  -0.0516  -0.0166  -0.0054  -0.0042
 231 H   :2px    0.0149  -0.0231   0.0062  -0.0162   0.0061  -0.0040  -0.0232
 232 H   :2py    0.0076  -0.0313   0.0319  -0.0635  -0.0065   0.0057  -0.0216
 234 H   :1s    -0.2591   0.3052   0.1484   0.2546  -0.2420   0.1951   0.1919
 235 H   :1s     0.0059   0.1156   0.0527   0.0616  -0.1139   0.1253   0.1497
 236 H   :1s    -0.0159   0.0139   0.0428   0.0281  -0.0299   0.0225   0.0263
 240 H   :2px    0.0160  -0.0221  -0.0205  -0.0202   0.0166  -0.0167  -0.0192
 241 H   :2py    0.0012  -0.0021   0.0094  -0.0150  -0.0093   0.0044  -0.0013
 242 H   :2pz   -0.0205   0.0537   0.0229   0.0363  -0.0504   0.0447   0.0539
 243 H   :1s     0.0270  -0.1665  -0.2043   0.2096   0.3263  -0.2408  -0.1803
 244 H   :1s     0.0852  -0.0455  -0.1090   0.0777   0.0933  -0.1194  -0.0445
 245 H   :1s    -0.0031  -0.0010  -0.0448   0.0389   0.0334  -0.0043  -0.0292
 249 H   :2px    0.0188  -0.0296  -0.0310   0.0256   0.0422  -0.0444  -0.0311
 250 H   :2py   -0.0050   0.0030   0.0253  -0.0266  -0.0186   0.0195   0.0035
 251 H   :2pz   -0.0008   0.0045  -0.0093   0.0092   0.0109  -0.0141  -0.0039

    Orbital        25       26       27       28       29       30       31
   2 C   :1s    -0.0200   0.0383   0.1185  -0.0178   0.1210   0.0175   0.0102
   3 C   :1s    -0.0961   0.0540  -0.0379  -0.0943   0.0773   0.0291  -0.0031
   4 C   :1s    -0.1770   0.1338   0.0808  -0.1975   1.6045  -1.2384   0.0470
   5 C   :2px    0.1994  -0.1130   0.3057  -0.0008   0.0330   0.0243   0.0027
   6 C   :2py   -0.0206   0.1350   0.1312  -0.0097  -0.0484   0.0266  -0.0833
   7 C   :2pz    0.2237  -0.0077  -0.1842  -0.0126   0.0489   0.0872   0.0554
   8 C   :2px   -0.0452   0.0735  -0.0719  -0.0558   0.0057   0.0690   0.0034
   9 C   :2py   -0.0557  -0.1165  -0.1270  -0.0778  -0.0419   0.1066   0.1074
  10 C   :2pz   -0.1222  -0.0356   0.0977  -0.0044   0.0878   0.0252   0.0192
  11 C   :2px    0.0285   0.0715  -0.0468   0.0651  -0.1318   0.5200  -0.9777
  12 C   :2py   -0.0557   0.0435   0.0200  -0.0861   0.0165  -0.2693  -0.2807
  13 C   :2pz   -0.0227  -0.0368  -0.0007  -0.0363  -0.1300   0.3866   0.1198
  14 C   :3d2-   0.0003   0.0058   0.0035  -0.0106  -0.0030  -0.0011  -0.0038
  15 C   :3d1-  -0.0045  -0.0034   0.0024  -0.0168  -0.0007  -0.0049   0.0003
  16 C   :3d0    0.0149   0.0010   0.0006   0.0348   0.0007   0.0087   0.0036
  17 C   :3d1+   0.0138   0.0066  -0.0040  -0.0064  -0.0044  -0.0003  -0.0028
  18 C   :3d2+  -0.0025   0.0140   0.0036   0.0044   0.0039   0.0047   0.0003
  19 C   :3d2-   0.0301   0.0249  -0.0129  -0.0064  -0.0063   0.0116  -0.0327
  20 C   :3d1-  -0.0027   0.0365   0.0292   0.0086   0.0165  -0.0249  -0.0383
  21 C   :3d0   -0.0497   0.0123   0.0273  -0.0150   0.0116   0.0021  -0.0186
  22 C   :3d1+   0.0220  -0.0011   0.0080   0.0141   0.0156  -0.0015   0.0107
  23 C   :3d2+  -0.0414   0.0257  -0.0035  -0.0065   0.0001  -0.0049  -0.0316
  25 C   :1s     0.0291  -0.0183  -0.0044  -0.0607   0.0455   0.0500   0.0712
  26 C   :1s     0.1003   0.0225   0.0166  -0.0524   0.0121  -0.0404  -0.1325
  27 C   :1s     0.6939   0.0498  -0.1505   1.3137  -3.2916   1.8059  -4.4313
  28 C   :2px   -0.0420  -0.0427  -0.1121   0.0020  -0.0659  -0.0677  -0.0665
  29 C   :2py    0.2189  -0.4128   0.0795   0.0537  -0.0129  -0.0215   0.0161
  30 C   :2pz   -0.4433  -0.1635   0.0340  -0.0446   0.1041  -0.0138   0.0823
  31 C   :2px    0.0352   0.0722   0.1133   0.0134   0.0351   0.0365  -0.0218
  32 C   :2py   -0.0472   0.1642   0.0322  -0.0288  -0.0153   0.0149  -0.1118
  33 C   :2pz    0.3783   0.1535  -0.0293   0.0430  -0.1477   0.1204  -0.1782
  34 C   :2px    0.0249   0.0130  -0.0424   0.2288  -0.7566   1.0101  -1.4580
  35 C   :2py    0.0479  -0.0777   0.0430   0.1727  -0.0683   0.3872  -0.0869
  36 C   :2pz   -0.0940   0.0455  -0.0272  -0.2952   1.2002   0.7791   1.4647
  37 C   :3d2-   0.0118  -0.0093   0.0060  -0.0006  -0.0023   0.0007   0.0034
  38 C   :3d1-   0.0113   0.0069   0.0029  -0.0034   0.0019  -0.0009   0.0009
  40 C   :3d1+   0.0203   0.0110  -0.0082  -0.0098   0.0055   0.0009   0.0027
  41 C   :3d2+  -0.0091   0.0125   0.0096   0.0035  -0.0020   0.0005   0.0017
  42 C   :3d2-   0.0142   0.0095   0.0177   0.0089  -0.0012  -0.0458  -0.0404
  43 C   :3d1-  -0.0017  -0.0313   0.0117  -0.0235   0.0137  -0.0147  -0.0036
  44 C   :3d0   -0.0289  -0.0416  -0.0505   0.0202  -0.0142   0.0496   0.0223
  45 C   :3d1+  -0.0620  -0.0322  -0.0067  -0.0259   0.0319  -0.0254   0.0411
  46 C   :3d2+   0.0394   0.0121   0.0095   0.0523   0.0021  -0.0243  -0.0143
  48 C   :1s     0.0424  -0.0740   0.0092   0.0174   0.1241   0.0861  -0.0294
  49 C   :1s    -0.0172  -0.1558  -0.0210   0.0058   0.1027   0.0827  -0.0067
  50 C   :1s     0.0069  -0.1771   0.1944  -0.8772   1.5485  -2.0066   1.5168
  51 C   :2px   -0.0588   0.1955   0.1218   0.0083  -0.0466   0.0319   0.0630
  52 C   :2py   -0.2133   0.3602  -0.0127   0.0177   0.1016   0.0600  -0.0490
  53 C   :2pz    0.2547   0.2470  -0.0315  -0.0505   0.0502   0.1045  -0.0048
  54 C   :2px   -0.0948  -0.0770  -0.0709  -0.0484  -0.0478   0.0712  -0.0021
  55 C   :2py    0.0973  -0.0417   0.0975  -0.0192   0.0414  -0.0591  -0.1807
  56 C   :2pz   -0.1881  -0.1866  -0.0165   0.0055   0.0506   0.0185   0.0595
  57 C   :2px    0.0490  -0.1077   0.0561   0.0271  -0.1629  -0.3005   0.3487
  58 C   :2py    0.0427   0.0334  -0.0110   0.2520   0.0387   0.9767  -0.6807
  59 C   :2pz   -0.0655  -0.0419  -0.0323   0.1033  -0.0398   0.5674  -0.1482
  60 C   :3d2-   0.0123  -0.0041   0.0128   0.0059   0.0037   0.0043   0.0021
  61 C   :3d1-   0.0165   0.0126  -0.0037   0.0084  -0.0037   0.0014  -0.0014
  62 C   :3d0    0.0061   0.0193   0.0027   0.0013  -0.0016  -0.0018  -0.0030
  65 C   :3d2-   0.0024  -0.0537   0.0073   0.0546  -0.0052  -0.0222  -0.0046
  66 C   :3d1-  -0.0057  -0.0265  -0.0127  -0.0065  -0.0024   0.0190   0.0091
  67 C   :3d0   -0.0238  -0.0373   0.0238  -0.0114  -0.0001  -0.0293  -0.0079
  68 C   :3d1+   0.0324  -0.0050   0.0230  -0.0071   0.0082  -0.0334   0.0007
  69 C   :3d2+   0.0346  -0.0019   0.0155  -0.0026  -0.0216  -0.0047  -0.0565
  71 C   :1s    -0.0310  -0.0234  -0.1215   0.0076   0.1076  -0.0094  -0.1269
  72 C   :1s    -0.0262  -0.0763   0.0221   0.0947   0.1683  -0.0404  -0.0271
  73 C   :1s    -0.2940   0.1447  -0.0930   0.1362   0.5851   0.6666   0.7834
  74 C   :2px    0.1341  -0.1497  -0.2000  -0.0248   0.0470   0.0512  -0.0497
  75 C   :2py    0.0277  -0.0923   0.3133  -0.0075   0.0241   0.0268  -0.1049
  76 C   :2pz   -0.1419  -0.2167  -0.0538  -0.0093  -0.0555   0.0669   0.0804
  77 C   :2px   -0.0373   0.0982   0.0234  -0.0114  -0.0212   0.0879  -0.0641
  78 C   :2py   -0.0729   0.1561  -0.1448  -0.0927   0.1111   0.0339  -0.1009
  79 C   :2pz    0.0921   0.1136   0.0623  -0.0144   0.0257   0.0570   0.0342
  80 C   :2px    0.0869  -0.0229   0.0487  -0.1038   0.0008  -0.1301  -0.0741
  81 C   :2py    0.0223   0.0332  -0.0045  -0.0438   0.0073   0.2075  -1.0368
  82 C   :2pz   -0.0213   0.0903  -0.0253  -0.0549  -0.1106   0.4359   0.0443
  83 C   :3d2-   0.0065  -0.0154   0.0051   0.0134  -0.0040   0.0011   0.0018
  84 C   :3d1-   0.0021   0.0010  -0.0022   0.0259   0.0037   0.0070   0.0043
  85 C   :3d0    0.0074   0.0181   0.0018  -0.0250  -0.0033  -0.0027  -0.0030
  87 C   :3d2+  -0.0025  -0.0035   0.0009  -0.0107   0.0004  -0.0026  -0.0030
  88 C   :3d2-   0.0213   0.0178  -0.0133  -0.0051   0.0292  -0.0159  -0.0534
  89 C   :3d1-  -0.0237   0.0453  -0.0123  -0.0132   0.0124   0.0223   0.0039
  90 C   :3d0   -0.0268  -0.0238  -0.0262   0.0012   0.0036  -0.0277   0.0094
  91 C   :3d1+  -0.0246  -0.0038  -0.0181  -0.0005  -0.0096   0.0086   0.0114
  92 C   :3d2+  -0.0300   0.0137  -0.0182  -0.0102   0.0192  -0.0021   0.0117
  94 C   :1s    -0.0621   0.0319   0.0003  -0.0021   0.0044   0.0046   0.0063
  95 C   :1s    -0.0914   0.0474   0.0060  -0.0069   0.1884  -0.0580  -0.0139
  96 C   :1s     0.1053  -0.1224   0.0115  -0.2185   0.8009   0.3060   0.0637
  97 C   :2px    0.0184   0.0176  -0.0546  -0.2372  -0.0327  -0.0556  -0.0354
  98 C   :2py   -0.0446   0.0310  -0.2264  -0.2222  -0.0215  -0.0553  -0.0045
  99 C   :2pz   -0.0910   0.0946   0.1020  -0.6275  -0.0774  -0.1466  -0.1330
 100 C   :2px    0.0543  -0.0261  -0.0198  -0.0562  -0.0328   0.0084  -0.0296
 101 C   :2py   -0.0590   0.0891  -0.0846  -0.1272   0.0153  -0.0262  -0.0994
 102 C   :2pz    0.0047  -0.0337   0.0556  -0.0592  -0.0316  -0.0743  -0.0288
 103 C   :2px   -0.0422   0.0108  -0.0362  -0.0289  -0.1661   0.0727  -0.3456
 104 C   :2py    0.0181   0.0582  -0.1362  -0.0373   0.0370   0.1723  -1.6251
 105 C   :2pz    0.0221  -0.0495   0.0604  -0.3228  -0.0204  -0.1306   0.6442
 106 C   :3d2-   0.0021   0.0004   0.0492   0.0068   0.0012   0.0020  -0.0024
 107 C   :3d1-  -0.0047  -0.0083  -0.0056  -0.0123  -0.0091  -0.0036   0.0002
 108 C   :3d0    0.0124   0.0005   0.0105  -0.0127  -0.0043  -0.0012  -0.0001
 109 C   :3d1+  -0.0088   0.0103  -0.0266   0.0270  -0.0007   0.0060   0.0072
 110 C   :3d2+  -0.0093   0.0140   0.0315   0.0157  -0.0028   0.0013  -0.0012
 111 C   :3d2-   0.0429  -0.0382   0.0463   0.0461   0.0040  -0.0215  -0.0121
 112 C   :3d1-  -0.0175   0.0141  -0.0016  -0.0250  -0.0204   0.0176   0.0208
 113 C   :3d0    0.0039  -0.0057   0.0109  -0.0170  -0.0259   0.0046   0.0176
 114 C   :3d1+   0.0078   0.0056  -0.0328   0.0331  -0.0098   0.0193   0.0385
 115 C   :3d2+  -0.0364   0.0269   0.0299   0.0362   0.0035   0.0031   0.0014
 117 C   :1s     0.0903   0.0620   0.0012  -0.0184   0.1534  -0.1534   0.0237
 118 C   :1s     0.1824   0.1441   0.0244   0.0140   0.1625  -0.1493  -0.1063
 119 C   :1s    -0.2546  -0.0053  -0.0354  -0.3248   2.4392   0.4897   1.3996
 120 C   :2px    0.1094   0.0588   0.0140  -0.0300  -0.0570   0.0267  -0.0732
 121 C   :2py   -0.0812   0.2851  -0.0188  -0.0149  -0.0215   0.0340  -0.0764
 122 C   :2pz    0.3783   0.1904  -0.0034  -0.0052  -0.0701   0.0985   0.0464
 123 C   :2px    0.1058   0.0990   0.0033   0.0148  -0.1027   0.0266  -0.1347
 124 C   :2py    0.1577  -0.1260   0.0333  -0.0027  -0.0308   0.0291  -0.1362
 125 C   :2pz   -0.0128   0.0610   0.0180   0.0183  -0.0837   0.1590   0.0274
 126 C   :2px   -0.0251   0.0110  -0.0158  -0.0710   0.2221   0.5911   0.0323
 127 C   :2py   -0.0066  -0.0090  -0.0026  -0.0051   0.1674   0.4480  -0.3947
 128 C   :2pz   -0.0357   0.0040   0.0010  -0.0486   0.1485   0.6650   0.1465
 129 C   :3d2-   0.0121  -0.0094   0.0023   0.0018  -0.0016   0.0004   0.0003
 132 C   :3d1+   0.0108   0.0087  -0.0033  -0.0011  -0.0011   0.0006   0.0000
 133 C   :3d2+  -0.0066   0.0122  -0.0022   0.0032   0.0002   0.0024  -0.0042
 134 C   :3d2-   0.0086   0.0350   0.0017  -0.0027  -0.0029  -0.0098   0.0160
 135 C   :3d1-   0.0251  -0.0085   0.0082  -0.0055  -0.0032   0.0010  -0.0038
 136 C   :3d0    0.0037   0.0032  -0.0101   0.0115  -0.0227   0.0460  -0.0199
 137 C   :3d1+   0.0089   0.0170   0.0031   0.0071  -0.0007   0.0261   0.0067
 138 C   :3d2+   0.0385  -0.0106   0.0061  -0.0005  -0.0042  -0.0224  -0.0014
 140 O   :1s    -0.0043   0.0047  -0.0004   0.0002   0.0261  -0.0090  -0.0320
 141 O   :1s     0.0113  -0.0088  -0.0010   0.0018  -0.0016  -0.0080  -0.0038
 142 O   :1s    -0.0102   0.0022  -0.0055   0.0443  -0.2262  -0.0333   0.0031
 143 O   :2px   -0.0627   0.0743   0.1683   0.1668   0.0388   0.0557   0.0173
 144 O   :2py   -0.0422   0.0965   0.6960   0.1559   0.0097   0.0441  -0.0077
 145 O   :2pz   -0.1809   0.2019  -0.3028   0.4447   0.0539   0.1398   0.0942
 146 O   :2px    0.0049  -0.0066   0.0006   0.0137   0.0155   0.0097   0.0040
 147 O   :2py   -0.0001  -0.0052   0.0013   0.0131  -0.0058   0.0139   0.0102
 148 O   :2pz    0.0030  -0.0049  -0.0002   0.0383   0.0039   0.0216   0.0109
 149 O   :2px    0.0050   0.0072   0.0329   0.0600   0.1079  -0.0053   0.0336
 150 O   :2py   -0.0086   0.0047   0.1236   0.0740  -0.0205  -0.0004   0.2231
 151 O   :2pz   -0.0214   0.0221  -0.0523   0.2285   0.0090   0.0322  -0.0184
 162 H   :1s    -0.0857  -0.1474  -0.0300  -0.1586  -0.0188  -0.0724   0.0079
 163 H   :1s    -0.1645  -0.0619  -0.1070  -0.1699  -0.0781   0.2077   0.2265
 164 H   :1s    -0.0321   0.0041  -0.0222  -0.3671  -0.2925  -0.0044  -0.6683
 168 H   :2px    0.0175   0.0072  -0.0034   0.0187  -0.0118  -0.0065  -0.0347
 169 H   :2py   -0.0388  -0.0258  -0.0321  -0.0058   0.0339   0.0458   0.1161
 170 H   :2pz   -0.0244   0.0069  -0.0006  -0.0130   0.0058  -0.0219  -0.0256
 171 H   :1s     0.3170  -0.0144  -0.0708   0.2259   0.0079   0.0805   0.0382
 172 H   :1s     0.1010   0.0129  -0.1018   0.1325  -0.2252  -0.0715   0.0458
 173 H   :1s     0.0365   0.0128  -0.0209   0.5158  -0.2203  -0.6845  -0.2284
 177 H   :2px   -0.0298  -0.0044   0.0125  -0.0204  -0.0073   0.0086  -0.0062
 178 H   :2py   -0.0001  -0.0096  -0.0054  -0.0243  -0.0065  -0.0233   0.0466
 179 H   :2pz   -0.0367  -0.0070   0.0212   0.0279   0.0157  -0.0150  -0.0087
 180 H   :1s    -0.4027  -0.0765   0.1276   0.0339   0.0096  -0.0259   0.0083
 181 H   :1s    -0.2860  -0.0623   0.0984  -0.1503   0.3267  -0.2204   0.4709
 182 H   :1s     0.0249  -0.0272   0.0315   0.4185  -1.2007  -0.6088  -2.4115
 186 H   :2px   -0.0464  -0.0043   0.0288  -0.0266   0.1076  -0.0543   0.1158
 187 H   :2py   -0.0149   0.0039   0.0035   0.0018   0.0187  -0.0340   0.0382
 188 H   :2pz    0.0799   0.0187  -0.0154   0.0573  -0.1065  -0.0498  -0.1614
 189 H   :1s     0.2166   0.4173  -0.0162   0.0228  -0.0029   0.0210  -0.0224
 190 H   :1s     0.1299   0.2018  -0.0213   0.0726  -0.1745  -0.0058   0.0569
 191 H   :1s     0.0488   0.0556   0.0065  -0.0539  -0.4212  -1.6475   0.1714
 195 H   :2px   -0.0176  -0.0059  -0.0044  -0.0104  -0.0028   0.0205   0.0284
 196 H   :2py   -0.0233  -0.0317   0.0070   0.0122  -0.0128  -0.0226  -0.0049
 197 H   :2pz   -0.0440  -0.0705  -0.0029   0.0013  -0.0011  -0.0642  -0.0242
 198 H   :1s    -0.2305  -0.0822  -0.1156  -0.0385   0.0041  -0.0145  -0.0016
 199 H   :1s    -0.1756  -0.1640  -0.1199   0.0253  -0.1290   0.1593   0.2929
 200 H   :1s    -0.0356  -0.0673  -0.0097  -0.0954  -0.5158  -0.5565   1.1672
 204 H   :2px   -0.0223  -0.0314  -0.0227   0.0100  -0.0038   0.0186   0.0211
 205 H   :2py    0.0489   0.0217   0.0302   0.0049  -0.0404  -0.0402  -0.0443
 206 H   :2pz   -0.0203  -0.0287  -0.0042   0.0186   0.0023  -0.0471  -0.0089
 207 H   :1s     0.0638  -0.2913   0.0368   0.1768  -0.0024   0.0412  -0.0007
 208 H   :1s    -0.0148  -0.1580   0.0748   0.1542  -0.2866  -0.1422   0.3350
 209 H   :1s    -0.0392  -0.0600   0.0204   0.4160  -0.1718  -0.4724   1.7578
 213 H   :2px    0.0041   0.0407  -0.0099  -0.0113   0.0379   0.0100  -0.0109
 214 H   :2py   -0.0044   0.0339  -0.0183   0.0191   0.0305   0.0134   0.0099
 215 H   :2pz    0.0161   0.0084   0.0012   0.0029  -0.0005  -0.0220  -0.0335
 216 H   :1s     0.1317   0.2645   0.0638  -0.2198  -0.0204  -0.0473  -0.0453
 217 H   :1s     0.1130   0.1157   0.1130  -0.1181  -0.0873   0.2400   0.1151
 218 H   :1s     0.0131   0.0687   0.0127  -0.5299  -0.3890   0.7227   0.6835
 222 H   :2px   -0.0041  -0.0073  -0.0031   0.0062   0.0067  -0.0145   0.0097
 223 H   :2py   -0.0075   0.0061  -0.0044  -0.0289  -0.0148  -0.0168  -0.0027
 224 H   :2pz    0.0386   0.0494   0.0314   0.0179   0.0276   0.0176  -0.0239
 225 H   :1s     0.1526  -0.2970   0.0156   0.0217  -0.0135  -0.0228   0.0276
 226 H   :1s     0.1609  -0.0812   0.0144  -0.0178  -0.2118   0.1189  -0.2140
 227 H   :1s     0.0180  -0.0196   0.0014   0.0670  -0.2514   1.2738  -0.9443
 231 H   :2px    0.0223  -0.0090   0.0019  -0.0228   0.0131  -0.0375   0.0296
 232 H   :2py    0.0489  -0.0418   0.0018   0.0012  -0.0097  -0.0105  -0.0276
 233 H   :2pz    0.0046  -0.0035   0.0004  -0.0096   0.0142  -0.0278   0.0152
 234 H   :1s    -0.2510  -0.0572   0.0260  -0.0207   0.0265   0.0119  -0.0172
 235 H   :1s    -0.0605   0.0289   0.0288  -0.0158  -0.0420   0.2661   0.4313
 236 H   :1s    -0.0183  -0.0150   0.0134  -0.0394  -0.0941   0.8763   0.5663
 240 H   :2px   -0.0008  -0.0045  -0.0118   0.0152   0.0100   0.0242   0.0224
 241 H   :2py   -0.0024  -0.0071  -0.0047  -0.0135   0.0029  -0.0123   0.0330
 242 H   :2pz   -0.0393  -0.0020   0.0042   0.0127   0.0366   0.0207   0.0984
 243 H   :1s    -0.1613   0.1467  -0.0407   0.0144  -0.0018  -0.0113  -0.0139
 244 H   :1s     0.0164   0.1631  -0.0204  -0.0092  -0.2498   0.1353   0.0529
 245 H   :1s    -0.0135   0.0330  -0.0245  -0.0458  -0.3867   1.0649  -0.0199
 249 H   :2px    0.0010   0.0488  -0.0030  -0.0114  -0.0023  -0.0142   0.0387
 250 H   :2py    0.0085  -0.0229   0.0040  -0.0111   0.0163  -0.0294   0.0485
 251 H   :2pz   -0.0059   0.0159  -0.0034   0.0045   0.0091  -0.0120   0.0026

    Orbital        32       33       34       35       36       37
   2 C   :1s    -0.1236  -0.0645   0.0147   0.0758   0.0476   0.0118
   3 C   :1s    -0.0957  -0.0135   0.0248   0.1308   0.1091   0.1085
   4 C   :1s     3.9106   0.0177   3.3156  -1.0048  -0.2427   8.6325
   5 C   :2px   -0.0398  -0.0087  -0.0148  -0.0337  -0.0240  -0.0041
   6 C   :2py    0.0853  -0.0121  -0.0430  -0.1015   0.0256   0.0609
   7 C   :2pz   -0.0508  -0.1085  -0.0607  -0.0119   0.0423   0.0837
   8 C   :2px   -0.0369  -0.2036   0.1296   0.1383  -0.0174   0.1746
   9 C   :2py    0.0231   0.0507  -0.0942  -0.1748  -0.1870  -0.2013
  10 C   :2pz   -0.0103  -0.1407   0.0008  -0.0067   0.1855   0.1767
  11 C   :2px   -0.4159   0.3292  -0.0627  -0.1720  -0.2786   0.4221
  12 C   :2py    1.5072   0.0739   0.1324  -0.9411   0.0675   3.8924
  13 C   :2pz   -0.9952  -1.0026  -1.3799   0.0296   0.9395   1.2297
  19 C   :3d2-  -0.0203  -0.0287  -0.0085   0.0483  -0.0325   0.0568
  20 C   :3d1-   0.0236   0.0317   0.0177  -0.0023   0.0098   0.0311
  21 C   :3d0    0.0227  -0.0358   0.0243   0.0249   0.0617   0.1181
  22 C   :3d1+  -0.0275  -0.0113  -0.0047  -0.0137   0.0176   0.0751
  23 C   :3d2+  -0.0081   0.0333  -0.0180  -0.0029  -0.0049   0.0421
  25 C   :1s     0.0306  -0.0345   0.0791  -0.0961  -0.0501  -0.0418
  26 C   :1s    -0.0023   0.1022  -0.0917   0.0747   0.1087   0.2684
  27 C   :1s    -3.4570   0.3528  -4.1879   0.1556   2.8107  -0.3699
  28 C   :2px    0.0047   0.0391  -0.0521   0.0155   0.0009   0.0464
  29 C   :2py   -0.0354  -0.0313  -0.0427  -0.0346   0.0542  -0.0325
  30 C   :2pz    0.0444  -0.0001  -0.0014  -0.0730  -0.0334   0.0135
  31 C   :2px    0.0175  -0.1395   0.2862   0.2411  -0.0468   0.1565
  32 C   :2py    0.0129   0.2285   0.1405   0.1013  -0.1644  -0.0446
  33 C   :2pz   -0.0959  -0.0475   0.1779   0.0804   0.0211   0.0182
  34 C   :2px   -1.2446   0.6923  -1.2322   1.8654   1.4979  -0.5132
  35 C   :2py   -0.4133  -0.5952   0.2079   0.3805   0.9950   0.5825
  36 C   :2pz    0.5054  -0.8287   2.8172  -0.4037  -1.4853  -2.8636
  42 C   :3d2-   0.0062   0.0715  -0.0409   0.0064   0.0235   0.0081
  43 C   :3d1-   0.0302  -0.0061  -0.0394   0.0054   0.0478  -0.0151
  44 C   :3d0   -0.0358   0.0122  -0.0672  -0.0422   0.0128  -0.0524
  45 C   :3d1+   0.0099  -0.0020  -0.0680   0.0144  -0.0016   0.0965
  46 C   :3d2+  -0.0109  -0.0113  -0.0524  -0.0282   0.0332   0.0480
  48 C   :1s     0.0740   0.0477  -0.0308   0.1158  -0.0578   0.0197
  49 C   :1s    -0.0211   0.0298  -0.0316   0.1094  -0.1173   0.1376
  50 C   :1s     0.0346   2.1046   1.5540   0.8056  -1.6523  -5.6500
  51 C   :2px   -0.0358   0.0282  -0.0586  -0.0540  -0.0131   0.0281
  52 C   :2py    0.0747  -0.0230   0.0123   0.0137  -0.0205   0.0252
  53 C   :2pz   -0.0449   0.0574  -0.1017  -0.0569  -0.0535  -0.0312
  54 C   :2px   -0.1037  -0.0667   0.0347  -0.1634   0.0098   0.2138
  55 C   :2py    0.0525   0.2322   0.1538   0.2803  -0.1226   0.0001
  56 C   :2pz    0.0126   0.1068  -0.1493   0.0458  -0.1120  -0.1934
  57 C   :2px   -0.7825  -0.1839  -0.5139  -0.8457  -0.2936  -1.7308
  58 C   :2py    0.2430  -0.9325  -0.1206   0.7128   0.0920   0.9469
  59 C   :2pz    0.1358   0.3372  -2.0067  -0.5798  -1.2971   0.7520
  65 C   :3d2-  -0.0131  -0.0344  -0.0516  -0.0408   0.0392   0.0095
  66 C   :3d1-   0.0210   0.0173  -0.0298   0.0211  -0.0269  -0.0111
  67 C   :3d0   -0.0146   0.0349   0.0116   0.0162  -0.0760  -0.0416
  68 C   :3d1+   0.0153   0.0374  -0.0076   0.0409   0.0333  -0.0847
  69 C   :3d2+  -0.0371   0.0345  -0.0013   0.0297   0.0626   0.0896
  71 C   :1s    -0.1137  -0.0011   0.0483  -0.0768   0.0143   0.0266
  72 C   :1s    -0.0063   0.1423   0.2139  -0.1389  -0.0428  -0.0698
  73 C   :1s     1.3373  -0.6103   1.6939   0.5779  -2.3857   9.5802
  74 C   :2px   -0.0032   0.0576  -0.0133   0.0040   0.0271  -0.0433
  75 C   :2py   -0.0052   0.0649   0.0200  -0.0692   0.0423   0.0023
  76 C   :2pz   -0.0086   0.0924  -0.0466   0.0370   0.0876  -0.0172
  77 C   :2px   -0.1453  -0.0160   0.1168  -0.1189   0.0903   0.2461
  78 C   :2py    0.0510   0.0516   0.1524   0.0020  -0.0606   0.0552
  79 C   :2pz    0.0596   0.1398  -0.0966   0.1019   0.0515  -0.2970
  80 C   :2px   -0.9000   0.2169   0.4231   0.2905   1.7965  -1.3133
  81 C   :2py   -0.2953   0.8871  -0.5827  -0.8755   1.5117  -2.0928
  82 C   :2pz    0.4264   0.7154  -0.0548   0.7100   0.6527   1.1009
  88 C   :3d2-   0.0264   0.0044   0.0571  -0.0035   0.0196   0.0326
  89 C   :3d1-  -0.0095  -0.0257  -0.0185   0.0175  -0.0424   0.0212
  90 C   :3d0    0.0172  -0.0289   0.0400  -0.0079  -0.1078   0.0290
  91 C   :3d1+  -0.0094  -0.0031   0.0197   0.0072   0.0305   0.0741
  92 C   :3d2+   0.0342   0.0249   0.0367   0.0463  -0.0011  -0.0274
  94 C   :1s     0.0264  -0.0231  -0.0480  -0.0106  -0.0149  -0.0569
  95 C   :1s     0.1126  -0.0147   0.1522  -0.0357   0.0464  -0.0434
  96 C   :1s    -3.0686  -2.2583  -1.7045  -0.8791   2.0833 -12.5908
  97 C   :2px   -0.0048   0.0066   0.0509   0.0311  -0.0149   0.0723
  98 C   :2py   -0.0024  -0.0337   0.0049   0.0051  -0.0017  -0.0123
  99 C   :2pz    0.0225  -0.0332   0.0374   0.0790  -0.0372   0.0000
 100 C   :2px   -0.0390  -0.0477   0.0386   0.0331  -0.0561  -0.0559
 101 C   :2py    0.0779  -0.0071   0.0759   0.0649  -0.1320   0.0315
 102 C   :2pz   -0.0117  -0.0187  -0.0428   0.0113   0.0382   0.0171
 103 C   :2px    0.7049   0.9116   0.2682  -0.1272  -0.4936   3.0101
 104 C   :2py    0.5047   0.8136   0.2242  -1.0582  -0.2856  -1.1941
 105 C   :2pz   -0.4300  -0.5041   0.1717   0.7356  -0.0879  -1.0912
 111 C   :3d2-   0.0242   0.0307  -0.0173  -0.0444   0.0195  -0.0354
 112 C   :3d1-  -0.0038  -0.0197   0.0096  -0.0056  -0.0120   0.0584
 113 C   :3d0    0.0389   0.0503   0.0118  -0.0077   0.0389  -0.0128
 114 C   :3d1+   0.0076   0.0136   0.0218   0.0128  -0.0603  -0.0263
 115 C   :3d2+  -0.0097   0.0108   0.0394   0.0081   0.0157   0.0258
 117 C   :1s     0.0144   0.0196  -0.0873  -0.0343  -0.0066   0.0074
 118 C   :1s    -0.0336   0.1193  -0.1439   0.0726   0.1074   0.0644
 119 C   :1s     0.1618  -0.3479   0.1466   0.3279  -0.5987  -1.5552
 120 C   :2px   -0.1050  -0.0165  -0.0191  -0.0144  -0.1220   0.0160
 121 C   :2py    0.0839  -0.1348  -0.0514  -0.0046   0.0440  -0.0567
 122 C   :2pz    0.0069   0.0545   0.0308  -0.0022   0.0815   0.0157
 123 C   :2px   -0.0940  -0.0013   0.2030   0.1175  -0.1514   0.0636
 124 C   :2py    0.1132  -0.1890   0.0617   0.0418   0.0629  -0.2145
 125 C   :2pz   -0.0118  -0.0691   0.3993   0.0302  -0.0802  -0.0685
 126 C   :2px   -0.5450  -0.3706   0.3621  -0.1386  -1.3019   0.1449
 127 C   :2py    0.7006  -0.8664  -0.4091  -0.0552  -0.0477  -1.6324
 128 C   :2pz   -0.2487   0.1046   0.6047   0.5010   0.5235  -0.0479
 134 C   :3d2-   0.0084  -0.0327   0.0282   0.0091   0.0175   0.0553
 135 C   :3d1-  -0.0165  -0.0203   0.0582   0.0214   0.0069   0.0033
 136 C   :3d0   -0.0124  -0.0017   0.0555   0.0194  -0.0227  -0.0211
 137 C   :3d1+   0.0105  -0.0171   0.0667   0.0019  -0.0460  -0.0354
 138 C   :3d2+   0.0105   0.0081  -0.0024   0.0050  -0.0072  -0.0369
 140 O   :1s    -0.0777  -0.0336  -0.0111  -0.0054   0.0359  -0.0873
 141 O   :1s    -0.0186   0.0062  -0.0342  -0.0168   0.0157  -0.0912
 142 O   :1s     0.3552   0.3873  -0.2343   0.0378  -0.1835   0.7889
 143 O   :2px   -0.0082   0.0096  -0.0107  -0.0306   0.0371  -0.0358
 144 O   :2py    0.0056   0.0319  -0.0082  -0.0813   0.0250   0.0248
 145 O   :2pz   -0.0148   0.0194  -0.0635  -0.0255   0.0951   0.0374
 146 O   :2px   -0.0094  -0.0081   0.0142  -0.0067   0.0136  -0.0008
 147 O   :2py   -0.0039   0.0011  -0.0150  -0.0008   0.0015   0.0055
 148 O   :2pz    0.0053   0.0098  -0.0107  -0.0120   0.0225   0.0089
 149 O   :2px   -0.1562  -0.2315   0.0566   0.0063   0.1059  -0.5530
 150 O   :2py   -0.0057  -0.0426  -0.0998   0.0925   0.0058   0.1714
 151 O   :2pz    0.0806   0.0848  -0.0822  -0.1532   0.0229   0.1677
 162 H   :1s    -0.0060  -0.0172   0.0091  -0.0025  -0.0006  -0.0163
 163 H   :1s     0.0700  -0.0383  -0.1291  -0.3641  -0.2485  -0.2087
 164 H   :1s     1.4761  -0.4429  -1.4005  -2.6323   0.5963   4.7706
 168 H   :2px   -0.0161   0.0570  -0.0454   0.0056  -0.0083   0.0903
 169 H   :2py   -0.0214   0.0171   0.0434  -0.0109  -0.0677  -0.1118
 170 H   :2pz    0.0073   0.0401  -0.0215   0.0087  -0.0395  -0.0330
 171 H   :1s    -0.0335   0.0159   0.0010  -0.0147   0.0279   0.0166
 172 H   :1s     0.0630   0.4148  -0.0602  -0.1710  -0.5564  -0.8648
 173 H   :1s     1.7335   2.4380   1.5638  -0.6161  -2.1249  -3.4807
 177 H   :2px    0.0399   0.0197   0.0258  -0.0074   0.0011   0.0396
 178 H   :2py   -0.0072  -0.0379   0.0612   0.0315  -0.0024  -0.0180
 179 H   :2pz   -0.0042  -0.0116   0.0400   0.0353   0.0991   0.0483
 180 H   :1s     0.0066  -0.0115   0.0060   0.0032  -0.0305  -0.0011
 181 H   :1s     0.2892  -0.1985   0.2365   0.1949  -0.3302   0.1086
 182 H   :1s    -1.2548   1.1601  -3.6683   2.9945   2.2499   2.5342
 186 H   :2px    0.0829  -0.0339   0.0568  -0.0571  -0.0582  -0.0624
 187 H   :2py   -0.0140  -0.0088   0.0311  -0.0289   0.0049   0.0823
 188 H   :2pz   -0.0530   0.0863  -0.1134   0.0075   0.1239   0.0408
[...]

 omega B, excitation energy, moment :    0.126061    0.252123   -3.100992
 ELECTRIC           3           1


 Second order moment in a.u. for
 A operator label,  symmetry, spin:      XANGMOM     1    0
 B operator label,  symmetry, spin:      XDIPVEL     1    0
 Excited state no., symmetry, spin:             6    1    0

 omega B, excitation energy, moment :    0.126061    0.252123    0.301575
 MAGNETIC           1           1           6


 Second order moment in a.u. for
 A operator label,  symmetry, spin:      YANGMOM     1    0
 B operator label,  symmetry, spin:      XDIPVEL     1    0
 Excited state no., symmetry, spin:             6    1    0

 omega B, excitation energy, moment :    0.126061    0.252123   -2.328475
 MAGNETIC           2           1           6


 Second order moment in a.u. for
 A operator label,  symmetry, spin:      ZANGMOM     1    0
 B operator label,  symmetry, spin:      XDIPVEL     1    0
 Excited state no., symmetry, spin:             6    1    0

 omega B, excitation energy, moment :    0.126061    0.252123   -2.893457
 MAGNETIC           3           1           6


 Second order moment in a.u. for
 A operator label,  symmetry, spin:      XXROTSTR    1    0
 B operator label,  symmetry, spin:      XDIPVEL     1    0
 Excited state no., symmetry, spin:             6    1    0

 omega B, excitation energy, moment :    0.126061    0.252123    1.790532
 QUADRUPOLE           1           1


 Second order moment in a.u. for
 A operator label,  symmetry, spin:      YYROTSTR    1    0
 B operator label,  symmetry, spin:      XDIPVEL     1    0
 Excited state no., symmetry, spin:             6    1    0

 omega B, excitation energy, moment :    0.126061    0.252123   -4.793431
 QUADRUPOLE           2           1


 Second order moment in a.u. for
 A operator label,  symmetry, spin:      ZZROTSTR    1    0
 B operator label,  symmetry, spin:      XDIPVEL     1    0
 Excited state no., symmetry, spin:             6    1    0

 omega B, excitation energy, moment :    0.126061    0.252123    0.085066
 QUADRUPOLE           3           1


 Second order moment in a.u. for
 A operator label,  symmetry, spin:      XYROTSTR    1    0
 B operator label,  symmetry, spin:      XDIPVEL     1    0
 Excited state no., symmetry, spin:             6    1    0

 omega B, excitation energy, moment :    0.126061    0.252123   -0.892239
 QUADRUPOLE           4           1


 Second order moment in a.u. for
 A operator label,  symmetry, spin:      XZROTSTR    1    0
 B operator label,  symmetry, spin:      XDIPVEL     1    0
 Excited state no., symmetry, spin:             6    1    0

 omega B, excitation energy, moment :    0.126061    0.252123    0.728483
 QUADRUPOLE           5           1


 Second order moment in a.u. for
 A operator label,  symmetry, spin:      YZROTSTR    1    0
 B operator label,  symmetry, spin:      XDIPVEL     1    0
 Excited state no., symmetry, spin:             6    1    0

 omega B, excitation energy, moment :    0.126061    0.252123    0.804149
 QUADRUPOLE           6           1


 Second order moment in a.u. for
 A operator label,  symmetry, spin:      XDIPVEL     1    0
 B operator label,  symmetry, spin:      YDIPVEL     1    0
 Excited state no., symmetry, spin:             6    1    0

 omega B, excitation energy, moment :    0.126061    0.252123    4.016758
 ELECTRIC           1           2


 Second order moment in a.u. for
 A operator label,  symmetry, spin:      YDIPVEL     1    0
 B operator label,  symmetry, spin:      YDIPVEL     1    0
 Excited state no., symmetry, spin:             6    1    0

 omega B, excitation energy, moment :    0.126061    0.252123   -6.769989
 ELECTRIC           2           2


 Second order moment in a.u. for
 A operator label,  symmetry, spin:      ZDIPVEL     1    0
 B operator label,  symmetry, spin:      YDIPVEL     1    0
 Excited state no., symmetry, spin:             6    1    0

 omega B, excitation energy, moment :    0.126061    0.252123    2.246460
 ELECTRIC           3           2


 Second order moment in a.u. for
 A operator label,  symmetry, spin:      XANGMOM     1    0
 B operator label,  symmetry, spin:      YDIPVEL     1    0
 Excited state no., symmetry, spin:             6    1    0

 omega B, excitation energy, moment :    0.126061    0.252123   18.853054
 MAGNETIC           1           2           6


 Second order moment in a.u. for
 A operator label,  symmetry, spin:      YANGMOM     1    0
 B operator label,  symmetry, spin:      YDIPVEL     1    0
 Excited state no., symmetry, spin:             6    1    0

 omega B, excitation energy, moment :    0.126061    0.252123   -5.225959
 MAGNETIC           2           2           6


 Second order moment in a.u. for
 A operator label,  symmetry, spin:      ZANGMOM     1    0
 B operator label,  symmetry, spin:      YDIPVEL     1    0
 Excited state no., symmetry, spin:             6    1    0

 omega B, excitation energy, moment :    0.126061    0.252123   -3.340044
 MAGNETIC           3           2           6


 Second order moment in a.u. for
 A operator label,  symmetry, spin:      XXROTSTR    1    0
 B operator label,  symmetry, spin:      YDIPVEL     1    0
 Excited state no., symmetry, spin:             6    1    0

 omega B, excitation energy, moment :    0.126061    0.252123    0.296675
 QUADRUPOLE           1           2


 Second order moment in a.u. for
 A operator label,  symmetry, spin:      YYROTSTR    1    0
 B operator label,  symmetry, spin:      YDIPVEL     1    0
 Excited state no., symmetry, spin:             6    1    0

 omega B, excitation energy, moment :    0.126061    0.252123  -15.032136
 QUADRUPOLE           2           2


 Second order moment in a.u. for
 A operator label,  symmetry, spin:      ZZROTSTR    1    0
 B operator label,  symmetry, spin:      YDIPVEL     1    0
 Excited state no., symmetry, spin:             6    1    0

 omega B, excitation energy, moment :    0.126061    0.252123    4.195020
 QUADRUPOLE           3           2


 Second order moment in a.u. for
 A operator label,  symmetry, spin:      XYROTSTR    1    0
 B operator label,  symmetry, spin:      YDIPVEL     1    0
 Excited state no., symmetry, spin:             6    1    0

 omega B, excitation energy, moment :    0.126061    0.252123   -7.697212
 QUADRUPOLE           4           2


 Second order moment in a.u. for
 A operator label,  symmetry, spin:      XZROTSTR    1    0
 B operator label,  symmetry, spin:      YDIPVEL     1    0
 Excited state no., symmetry, spin:             6    1    0

 omega B, excitation energy, moment :    0.126061    0.252123    1.095860
 QUADRUPOLE           5           2


 Second order moment in a.u. for
 A operator label,  symmetry, spin:      YZROTSTR    1    0
 B operator label,  symmetry, spin:      YDIPVEL     1    0
 Excited state no., symmetry, spin:             6    1    0

 omega B, excitation energy, moment :    0.126061    0.252123    0.191676
 QUADRUPOLE           6           2


 Second order moment in a.u. for
 A operator label,  symmetry, spin:      XDIPVEL     1    0
 B operator label,  symmetry, spin:      ZDIPVEL     1    0
 Excited state no., symmetry, spin:             6    1    0

 omega B, excitation energy, moment :    0.126061    0.252123   -3.100991
 ELECTRIC           1           3


 Second order moment in a.u. for
 A operator label,  symmetry, spin:      YDIPVEL     1    0
 B operator label,  symmetry, spin:      ZDIPVEL     1    0
 Excited state no., symmetry, spin:             6    1    0

 omega B, excitation energy, moment :    0.126061    0.252123    2.246457
 ELECTRIC           2           3


 Second order moment in a.u. for
 A operator label,  symmetry, spin:      ZDIPVEL     1    0
 B operator label,  symmetry, spin:      ZDIPVEL     1    0
 Excited state no., symmetry, spin:             6    1    0

 omega B, excitation energy, moment :    0.126061    0.252123   -1.879443
 ELECTRIC           3           3


 Second order moment in a.u. for
 A operator label,  symmetry, spin:      XANGMOM     1    0
 B operator label,  symmetry, spin:      ZDIPVEL     1    0
 Excited state no., symmetry, spin:             6    1    0

 omega B, excitation energy, moment :    0.126061    0.252123  -11.997784
 MAGNETIC           1           3           6


 Second order moment in a.u. for
 A operator label,  symmetry, spin:      YANGMOM     1    0
 B operator label,  symmetry, spin:      ZDIPVEL     1    0
 Excited state no., symmetry, spin:             6    1    0

 omega B, excitation energy, moment :    0.126061    0.252123    1.944542
 MAGNETIC           2           3           6


 Second order moment in a.u. for
 A operator label,  symmetry, spin:      ZANGMOM     1    0
 B operator label,  symmetry, spin:      ZDIPVEL     1    0
 Excited state no., symmetry, spin:             6    1    0

 omega B, excitation energy, moment :    0.126061    0.252123    2.357079
 MAGNETIC           3           3           6


 Second order moment in a.u. for
 A operator label,  symmetry, spin:      XXROTSTR    1    0
 B operator label,  symmetry, spin:      ZDIPVEL     1    0
 Excited state no., symmetry, spin:             6    1    0

 omega B, excitation energy, moment :    0.126061    0.252123    0.609589
 QUADRUPOLE           1           3


 Second order moment in a.u. for
 A operator label,  symmetry, spin:      YYROTSTR    1    0
 B operator label,  symmetry, spin:      ZDIPVEL     1    0
 Excited state no., symmetry, spin:             6    1    0

 omega B, excitation energy, moment :    0.126061    0.252123    3.086109
 QUADRUPOLE           2           3


 Second order moment in a.u. for
 A operator label,  symmetry, spin:      ZZROTSTR    1    0
 B operator label,  symmetry, spin:      ZDIPVEL     1    0
 Excited state no., symmetry, spin:             6    1    0

 omega B, excitation energy, moment :    0.126061    0.252123   -6.826632
 QUADRUPOLE           3           3


 Second order moment in a.u. for
 A operator label,  symmetry, spin:      XYROTSTR    1    0
 B operator label,  symmetry, spin:      ZDIPVEL     1    0
 Excited state no., symmetry, spin:             6    1    0

 omega B, excitation energy, moment :    0.126061    0.252123    1.981669
 QUADRUPOLE           4           3


 Second order moment in a.u. for
 A operator label,  symmetry, spin:      XZROTSTR    1    0
 B operator label,  symmetry, spin:      ZDIPVEL     1    0
 Excited state no., symmetry, spin:             6    1    0

 omega B, excitation energy, moment :    0.126061    0.252123   -1.326697
 QUADRUPOLE           5           3


 Second order moment in a.u. for
 A operator label,  symmetry, spin:      YZROTSTR    1    0
 B operator label,  symmetry, spin:      ZDIPVEL     1    0
 Excited state no., symmetry, spin:             6    1    0

 omega B, excitation energy, moment :    0.126061    0.252123    2.913128
 QUADRUPOLE           6           3


       *******************************************************************
       ************ FINAL RESULTS FROM TWO-PHOTON CALCULATION ************
       *******************************************************************

 The two-photon absorption strength for an average molecular  
 orientation is computed according to formulas given by       
 P.R. Monson and W.M. McClain in J. Chem. Phys. 53:29, 1970   
 and W.M. McClain in J. Chem. Phys. 55:2789, 1971.            
 The absorption depends on the light polarization.            
 A monochromatic light source is assumed.                     

 All results are presented in atomic units, except the        
 excitation energy which is given in eV and two-photon cross  
 section which is given in GM. A FWHM of 0.1 eV is assumed.   

   Conversion factors:
      1 a.u. = 1.896788 10^{-50} cm^4 s/photon
      1 GM = 10^{-50} cm^4 s/photon


                  +--------------------------------+
                  | Two-photon transition tensor S |
                  +--------------------------------+
     ---------------------------------------------------------------------------------
     Sym  No  Energy        Sxx        Syy        Szz        Sxy        Sxz        Syz
     ---------------------------------------------------------------------------------
       1   1    4.18     0.1    -0.6     0.3     1.9    -1.4     0.1
       1   2    5.58    -1.9     1.3     3.3    -0.4     1.6    -1.1
       1   3    6.13     1.1    -0.2     1.3     1.8    -3.4     0.4
       1   4    6.24     3.2    -0.3     0.5     0.5    -0.6    -0.2
       1   5    6.30    -3.1     0.1    -2.8     1.9    -0.8     0.6
       1   6    6.86     0.7     0.2    -6.8     1.1    -1.3     2.9


         +-------------------------------------------------+
         | Two-photon transition tensor P (velocity gauge) |
         +-------------------------------------------------+
     ---------------------------------------------------------------------------------
     Sym  No  Frequ.        Pxx        Pyy        Pzz        Pxy        Pxz        Pyz
     ---------------------------------------------------------------------------------
       1   1 0.07679      2.004      4.395     -6.429      2.564      0.472      5.724
       1   2 0.10248      2.039      1.026      0.417     -2.756      0.785     -1.058
       1   3 0.11272     -0.364     -7.440    -14.209     -2.972      2.012      8.654
       1   4 0.11457     -6.962    -21.688     -1.671     -7.728      1.075      4.732
       1   5 0.11573      6.570    -16.537     -6.749     -1.932      0.066      6.754
       1   6 0.12606     -3.426     -6.770     -1.879      4.017     -3.101      2.246


        +--------------------------------------------------+
        | El. dip.-mag. dip. trans. tensor  M (vel. gauge) |
        +--------------------------------------------------+
     ------------------------------------------------------------------------------------------------------------------
     Sym  No  Energy        Mxx        Myy        Mzz        Mxy        Mxz        Myx        Myz        Mzx        Mzy
     ------------------------------------------------------------------------------------------------------------------
       1   1    4.18      3.332      3.172     -1.884     -1.041     -1.807     -1.060     -2.370     -2.746     -2.532
       1   2    5.58      2.974      0.403     -3.215     -2.467      4.606      1.447      0.717      6.848     -2.864
       1   3    6.13      2.793      6.031     -5.521      0.285     -1.811      0.510     -8.245     -0.344      3.098
       1   4    6.24      4.583      0.693     -0.988      3.198      0.235     -0.880     -0.969      5.528     12.786
       1   5    6.30      0.683      4.269     -2.851     -0.054     -2.600     -2.254     -3.415     -2.027     10.171
       1   6    6.86      0.302     -5.226      2.357     18.853    -11.998     -2.328      1.945     -2.893     -3.340


        +--------------------------------------------------+
        | El. dip.-el. quad. trans. tensor  T (vel. gauge) |
        +--------------------------------------------------+
     ---------------------------------------------------------------------------------------------------------------------------------------------------------------------------------------------------------------------
     Sym  No  Energy       Txxx       Txxy       Txxz       Tyyx       Tyyy       Tyyz       Tzzx       Tzzy       Tzzz       Txyx       Txyy       Txyz       Txzx       Txzy       Txzz       Tyzx       Tyzy       Tyzz
     ---------------------------------------------------------------------------------------------------------------------------------------------------------------------------------------------------------------------
       1   1    4.18      1.578      2.088      0.267     -0.495     -1.009     -0.651      0.170     -0.671      0.307      0.608      1.833      1.633      0.131      1.866     -1.445     -0.482     -0.645      0.147
       1   2    5.58     -0.142      0.900     -2.000     -2.410     -4.022      2.356     -0.403     -3.581      3.331      1.557     -2.526      0.453     -1.940     -0.413      1.573      0.313      1.347     -1.083
       1   3    6.13     -3.946     -1.230      1.592      1.076     -1.902     -0.375     -0.429     -1.176      1.349     -0.682     -0.944      2.984      1.142      1.796     -3.377     -0.185     -0.206      0.433
       1   4    6.24     -3.992     -3.873      2.832      1.152     -1.845     -0.031     -0.240     -1.182      0.510     -3.373     -5.256      0.258      3.168      0.502     -0.627     -1.297     -0.345     -0.238
       1   5    6.30     -1.783      4.794     -2.000     -2.393      4.361     -1.140      1.207      2.242     -2.828      6.154     -6.743      0.819     -3.072      1.866     -0.816     -0.758      0.118      0.561
       1   6    6.86      1.791      0.297      0.610     -4.793    -15.032      3.086      0.085      4.195     -6.827     -0.892     -7.697      1.982      0.728      1.096     -1.327      0.804      0.192      2.913
     ------------------------------------------------------------------------


                    Transition probabilities (a.u.)         
                   -----------------------------------------
                    D  =  2*Df + 4*Dg, Linear   polarization
                    D  = -2*Df + 6*Dg, Circular polarization
                    Df = sum(i,j){ S_ii * S_jj }/30         
                    Dg = sum(i,j){ S_ij * S_ij }/30         

                   Two-photon cross sections                
         ---------------------------------------------------
          sigma  =  8*pi^3*alpha^2*hbar/e^4 * E^2*D   (a.u.)

                             Polarization ratio      
                      -------------------------------
                          R  = (-Df+3*Dg)/(Df+2*Dg)  


                   +-----------------------------------+
                   |   Two-photon absorption summary   |
                   +-----------------------------------+
   ---------------------------------------------------------------------------------
   Sym  No  Energy  Polarization         Df         Dg          D      sigma       R
   ---------------------------------------------------------------------------------
     1   1    4.18   Linear       0.143E-02  0.390E+00  0.156E+01  0.200E-01    1.50
     1   1    4.18   Circular     0.143E-02  0.390E+00  0.234E+01  0.299E-01    1.50
     1   2    5.58   Linear       0.250E+00  0.810E+00  0.374E+01  0.853E-01    1.17
     1   2    5.58   Circular     0.250E+00  0.810E+00  0.436E+01  0.994E-01    1.17
     1   3    6.13   Linear       0.174E+00  0.109E+01  0.472E+01  0.130E+00    1.32
     1   3    6.13   Circular     0.174E+00  0.109E+01  0.621E+01  0.171E+00    1.32
     1   4    6.24   Linear       0.370E+00  0.394E+00  0.232E+01  0.660E-01    0.70
     1   4    6.24   Circular     0.370E+00  0.394E+00  0.162E+01  0.462E-01    0.70
     1   5    6.30   Linear       0.111E+01  0.879E+00  0.574E+01  0.167E+00    0.53
     1   5    6.30   Circular     0.111E+01  0.879E+00  0.305E+01  0.885E-01    0.53
     1   6    6.86   Linear       0.116E+01  0.234E+01  0.117E+02  0.402E+00    1.00
     1   6    6.86   Circular     0.116E+01  0.234E+01  0.117E+02  0.403E+00    1.00
   ---------------------------------------------------------------------------------

  Total CPU  time used in RESPONSE:  3 minutes 22 seconds
  Total wall time used in RESPONSE:  3 minutes 23 seconds


                   .-------------------------------------------.
                   | End of Dynamic Property Section (RESPONS) |
                   `-------------------------------------------'

  Total CPU  time used in DALTON:  3 minutes 36 seconds
  Total wall time used in DALTON:  3 minutes 37 seconds

 
     Date and time (Linux)  : Wed May 13 13:38:24 2020
     Host name              : s73p20.deic.sdu.dk                      
