

     ************************************************************************
     *************** Dalton - An Electronic Structure Program ***************
     ************************************************************************

    This is output from DALTON release Dalton2019.alpha (2019)
         ( Web site: http://daltonprogram.org )

   ----------------------------------------------------------------------------

    NOTE:
     
    Dalton is an experimental code for the evaluation of molecular
    properties using (MC)SCF, DFT, CI, and CC wave functions.
    The authors accept no responsibility for the performance of
    the code or for the correctness of the results.
     
    The code (in whole or part) is provided under a licence and
    is not to be reproduced for further distribution without
    the written permission of the authors or their representatives.
     
    See the home page "http://daltonprogram.org" for further information.
     
    If results obtained with this code are published,
    the appropriate citations would be both of:
     
       K. Aidas, C. Angeli, K. L. Bak, V. Bakken, R. Bast,
       L. Boman, O. Christiansen, R. Cimiraglia, S. Coriani,
       P. Dahle, E. K. Dalskov, U. Ekstroem,
       T. Enevoldsen, J. J. Eriksen, P. Ettenhuber, B. Fernandez,
       L. Ferrighi, H. Fliegl, L. Frediani, K. Hald, A. Halkier,
       C. Haettig, H. Heiberg, T. Helgaker, A. C. Hennum,
       H. Hettema, E. Hjertenaes, S. Hoest, I.-M. Hoeyvik,
       M. F. Iozzi, B. Jansik, H. J. Aa. Jensen, D. Jonsson,
       P. Joergensen, J. Kauczor, S. Kirpekar,
       T. Kjaergaard, W. Klopper, S. Knecht, R. Kobayashi, H. Koch,
       J. Kongsted, A. Krapp, K. Kristensen, A. Ligabue,
       O. B. Lutnaes, J. I. Melo, K. V. Mikkelsen, R. H. Myhre,
       C. Neiss, C. B. Nielsen, P. Norman, J. Olsen,
       J. M. H. Olsen, A. Osted, M. J. Packer, F. Pawlowski,
       T. B. Pedersen, P. F. Provasi, S. Reine, Z. Rinkevicius,
       T. A. Ruden, K. Ruud, V. Rybkin, P. Salek, C. C. M. Samson,
       A. Sanchez de Meras, T. Saue, S. P. A. Sauer,
       B. Schimmelpfennig, K. Sneskov, A. H. Steindal,
       K. O. Sylvester-Hvid, P. R. Taylor, A. M. Teale,
       E. I. Tellgren, D. P. Tew, A. J. Thorvaldsen, L. Thoegersen,
       O. Vahtras, M. A. Watson, D. J. D. Wilson, M. Ziolkowski
       and H. Agren,
       "The Dalton quantum chemistry program system",
       WIREs Comput. Mol. Sci. 2014, 4:269–284 (doi: 10.1002/wcms.1172)
     
    and
     
       Dalton, a molecular electronic structure program,
       Release Dalton2019.alpha (2019), see http://daltonprogram.org
   ----------------------------------------------------------------------------

    Authors in alphabetical order (major contribution(s) in parenthesis):

  Kestutis Aidas,           Vilnius University,           Lithuania   (QM/MM)
  Celestino Angeli,         University of Ferrara,        Italy       (NEVPT2)
  Keld L. Bak,              UNI-C,                        Denmark     (AOSOPPA, non-adiabatic coupling, magnetic properties)
  Vebjoern Bakken,          University of Oslo,           Norway      (DALTON; geometry optimizer, symmetry detection)
  Radovan Bast,             UiT The Arctic U. of Norway,  Norway      (DALTON installation and execution frameworks)
  Pablo Baudin,             University of Valencia,       Spain       (Cholesky excitation energies)
  Linus Boman,              NTNU,                         Norway      (Cholesky decomposition and subsystems)
  Ove Christiansen,         Aarhus University,            Denmark     (CC module)
  Renzo Cimiraglia,         University of Ferrara,        Italy       (NEVPT2)
  Sonia Coriani,            Technical Univ. of Denmark,   Denmark     (CC module, MCD in RESPONS)
  Janusz Cukras,            University of Trieste,        Italy       (MChD in RESPONS)
  Paal Dahle,               University of Oslo,           Norway      (Parallelization)
  Erik K. Dalskov,          UNI-C,                        Denmark     (SOPPA)
  Thomas Enevoldsen,        Univ. of Southern Denmark,    Denmark     (SOPPA)
  Janus J. Eriksen,         Aarhus University,            Denmark     (Polarizable embedding model, TDA)
  Rasmus Faber,             University of Copenhagen,     Denmark     (Vib.avg. NMR with SOPPA, parallel AO-SOPPA)
  Tobias Fahleson,          KTH Stockholm,                Sweden      (Damped cubic response)
  Berta Fernandez,          U. of Santiago de Compostela, Spain       (doublet spin, ESR in RESPONS)
  Lara Ferrighi,            Aarhus University,            Denmark     (PCM Cubic response)
  Heike Fliegl,             University of Oslo,           Norway      (CCSD(R12))
  Luca Frediani,            UiT The Arctic U. of Norway,  Norway      (PCM)
  Bin Gao,                  UiT The Arctic U. of Norway,  Norway      (Gen1Int library)
  Christof Haettig,         Ruhr-University Bochum,       Germany     (CC module)
  Kasper Hald,              Aarhus University,            Denmark     (CC module)
  Asger Halkier,            Aarhus University,            Denmark     (CC module)
  Frederik Beyer Hansen,    University of Copenhagen,     Denmark     (Parallel AO-SOPPA)
  Erik D. Hedegaard,        Univ. of Southern Denmark,    Denmark     (Polarizable embedding model, QM/MM)
  Hanne Heiberg,            University of Oslo,           Norway      (geometry analysis, selected one-electron integrals)
  Trygve Helgaker,          University of Oslo,           Norway      (DALTON; ABACUS, ERI, DFT modules, London, and much more)
  Alf Christian Hennum,     University of Oslo,           Norway      (Parity violation)
  Hinne Hettema,            University of Auckland,       New Zealand (quadratic response in RESPONS; SIRIUS supersymmetry)
  Eirik Hjertenaes,         NTNU,                         Norway      (Cholesky decomposition)
  Pi A. B. Haase,           University of Copenhagen,     Denmark     (Triplet AO-SOPPA)
  Maria Francesca Iozzi,    University of Oslo,           Norway      (RPA)
  Christoph Jacob           TU Braunschweig               Germany     (Frozen density embedding model)
  Brano Jansik              Technical Univ. of Ostrava    Czech Rep.  (DFT cubic response)
  Hans Joergen Aa. Jensen,  Univ. of Southern Denmark,    Denmark     (DALTON; SIRIUS, RESPONS, ABACUS modules, London, and much more)
  Dan Jonsson,              UiT The Arctic U. of Norway,  Norway      (cubic response in RESPONS module)
  Poul Joergensen,          Aarhus University,            Denmark     (RESPONS, ABACUS, and CC modules)
  Maciej Kaminski,          University of Warsaw,         Poland      (CPPh in RESPONS)
  Joanna Kauczor,           Linkoeping University,        Sweden      (Complex polarization propagator (CPP) module)
  Sheela Kirpekar,          Univ. of Southern Denmark,    Denmark     (Mass-velocity & Darwin integrals)
  Wim Klopper,              KIT Karlsruhe,                Germany     (R12 code in CC, SIRIUS, and ABACUS modules)
  Stefan Knecht,            ETH Zurich,                   Switzerland (Parallel CI and MCSCF)
  Rika Kobayashi,           Australian National Univ.,    Australia   (DIIS in CC, London in MCSCF)
  Henrik Koch,              NTNU,                         Norway      (CC module, Cholesky decomposition)
  Jacob Kongsted,           Univ. of Southern Denmark,    Denmark     (Polarizable embedding model, QM/MM)
  Andrea Ligabue,           University of Modena,         Italy       (CTOCD, AOSOPPA)
  Nanna H. List             Univ. of Southern Denmark,    Denmark     (Polarizable embedding model)
  Ola B. Lutnaes,           University of Oslo,           Norway      (DFT Hessian)
  Juan I. Melo,             University of Buenos Aires,   Argentina   (LRESC, Relativistic Effects on NMR Shieldings)
  Kurt V. Mikkelsen,        University of Copenhagen,     Denmark     (MC-SCRF and QM/MM)
  Rolf H. Myhre,            NTNU,                         Norway      (Subsystems and CC3)
  Christian Neiss,          Univ. Erlangen-Nuernberg,     Germany     (CCSD(R12))
  Christian B. Nielsen,     University of Copenhagen,     Denmark     (QM/MM)
  Patrick Norman,           KTH Stockholm,                Sweden      (Cubic response and complex frequency response in RESPONS)
  Jeppe Olsen,              Aarhus University,            Denmark     (SIRIUS CI/density modules)
  Jogvan Magnus H. Olsen,   Univ. of Southern Denmark,    Denmark     (Polarizable embedding model, QM/MM)
  Anders Osted,             Copenhagen University,        Denmark     (QM/MM)
  Martin J. Packer,         University of Sheffield,      UK          (SOPPA)
  Filip Pawlowski,          Kazimierz Wielki University,  Poland      (CC3)
  Morten N. Pedersen,       Univ. of Southern Denmark,    Denmark     (Polarizable embedding model)
  Thomas B. Pedersen,       University of Oslo,           Norway      (Cholesky decomposition)
  Patricio F. Provasi,      University of Northeastern,   Argentina   (Analysis of coupling constants in localized orbitals)
  Zilvinas Rinkevicius,     KTH Stockholm,                Sweden      (open-shell DFT, ESR)
  Elias Rudberg,            KTH Stockholm,                Sweden      (DFT grid and basis info)
  Torgeir A. Ruden,         University of Oslo,           Norway      (Numerical derivatives in ABACUS)
  Kenneth Ruud,             UiT The Arctic U. of Norway,  Norway      (DALTON; ABACUS magnetic properties and much more)
  Pawel Salek,              KTH Stockholm,                Sweden      (DALTON; DFT code)
  Claire C. M. Samson       University of Karlsruhe       Germany     (Boys localization, r12 integrals in ERI)
  Alfredo Sanchez de Meras, University of Valencia,       Spain       (CC module, Cholesky decomposition)
  Trond Saue,               Paul Sabatier University,     France      (direct Fock matrix construction)
  Stephan P. A. Sauer,      University of Copenhagen,     Denmark     (SOPPA(CCSD), SOPPA prop., AOSOPPA, vibrational g-factors)
  Andre S. P. Gomes,        CNRS/Universite de Lille,     France      (Frozen density embedding model)
  Bernd Schimmelpfennig,    Forschungszentrum Karlsruhe,  Germany     (AMFI module)
  Kristian Sneskov,         Aarhus University,            Denmark     (Polarizable embedding model, QM/MM)
  Arnfinn H. Steindal,      UiT The Arctic U. of Norway,  Norway      (parallel QM/MM, Polarizable embedding model)
  Casper Steinmann,         Univ. of Southern Denmark,    Denmark     (QFIT, Polarizable embedding model)
  K. O. Sylvester-Hvid,     University of Copenhagen,     Denmark     (MC-SCRF)
  Peter R. Taylor,          VLSCI/Univ. of Melbourne,     Australia   (Symmetry handling ABACUS, integral transformation)
  Andrew M. Teale,          University of Nottingham,     England     (DFT-AC, DFT-D)
  David P. Tew,             University of Bristol,        England     (CCSD(R12))
  Olav Vahtras,             KTH Stockholm,                Sweden      (triplet response, spin-orbit, ESR, TDDFT, open-shell DFT)
  Lucas Visscher,           Vrije Universiteit Amsterdam, Netherlands (Frozen density embedding model)
  David J. Wilson,          La Trobe University,          Australia   (DFT Hessian and DFT magnetizabilities)
  Hans Agren,               KTH Stockholm,                Sweden      (SIRIUS module, RESPONS, MC-SCRF solvation model)
 --------------------------------------------------------------------------------

     Date and time (Linux)  : Wed May 13 13:34:51 2020
     Host name              : s73p24.deic.sdu.dk                      

 * Work memory size             :   307200000 =  2.289 gigabytes.

 * Directories for basis set searches:
   1) /home/salvatore/ECD/Ciclopentanone
   2) /gpfs/gss1/work/sdujk/foeroyingur/Programs/dalton/build/pe/develop/basis


Compilation information
-----------------------

 Who compiled             | foeroyingur
 Host                     | fe1.deic.sdu.dk
 System                   | Linux-3.10.0-327.36.3.el7.x86_64
 CMake generator          | Unix Makefiles
 Processor                | x86_64
 64-bit integers          | OFF
 MPI                      | ON
 Fortran compiler         | /opt/sys/apps/intel/2018.05/impi_latest/intel64/bi
                          | n/mpiifort
 Fortran compiler version | unknown
 C compiler               | /opt/sys/apps/intel/2018.05/impi_latest/intel64/bi
                          | n/mpiicc
 C compiler version       | unknown
 C++ compiler             | /opt/sys/apps/intel/2018.05/impi_latest/intel64/bi
                          | n/mpiicpc
 C++ compiler version     | unknown
 Static linking           | OFF
 Last Git revision        | c988ec84aab2c775c476a86e7d3049a3f15e3f66
 Git branch               | pe/develop
 Configuration time       | 2019-09-25 16:51:26.133160

 * MPI parallel run using 96 processes.


   Content of the .dal input file
 ----------------------------------

**DALTON INPUT
.DIRECT
.RUN RESPONSE
**WAVE fUNCTIONS
.DFT
B3LYP
**INTEGRAL
.ANGMOM
.ROTSTR
.DIPVEL
**RESPONSE
*QUADRATIC
.TPCD
.ROOTS
6
**END OF DALTON INPUT


   Content of the .mol file
 ----------------------------

BASIS
aug-cc-pVDZ
equat.xyz
Generated by Open Babel. Check overall charge below.
AtomTypes=3 Charge=0 NoSymmetry Angstrom
Charge=6.0 Atoms=6
C            -0.0308520000   -1.0676600000    0.0326030000
C             1.0771450000   -0.0840080000   -0.3713870000
C             0.5617640000    1.2685050000    0.1682360000
C            -0.9514950000    1.2274430000   -0.0659360000
C            -1.3202350000   -0.2530870000    0.0157880000
C             2.4732250000   -0.4575230000    0.1093460000
Charge=8.0 Atoms=1
O            -2.4394820000   -0.6983320000    0.0583880000
Charge=1.0 Atoms=10
H             0.1190930000   -1.4125830000    1.0624620000
H            -0.1188130000   -1.9552720000   -0.5923100000
H             1.0910090000   -0.0224380000   -1.4649280000
H             1.0502080000    2.1175250000   -0.3091230000
H             0.7738110000    1.3336110000    1.2392290000
H            -1.2097230000    1.5680940000   -1.0733060000
H            -1.5493440000    1.8137130000    0.6302660000
H             2.7960430000   -1.4146490000   -0.3032830000
H             2.4997400000   -0.5383360000    1.1985230000
H             3.2065230000    0.2949780000   -0.1865330000


       *******************************************************************
       *********** Output from DALTON general input processing ***********
       *******************************************************************

 --------------------------------------------------------------------------------
   Overall default print level:    0
   Print level for DALTON.STAT:    1

    Parallel calculation using MPI
    AO-direct calculation (in sections where implemented)
    HERMIT 1- and 2-electron integral sections will be executed
    "Old" integral transformation used (limited to max 255 basis functions)
    Wave function sections will be executed (SIRIUS module)
    Dynamic molecular response properties section will be executed (RESPONSE module)
 --------------------------------------------------------------------------------


   ****************************************************************************
   *************** Output of molecule and basis set information ***************
   ****************************************************************************


    The two title cards from your ".mol" input:
    ------------------------------------------------------------------------
 1: equat.xyz                                                               
 2: Generated by Open Babel. Check overall charge below.                    
    ------------------------------------------------------------------------

  Coordinates are entered in Angstrom and converted to atomic units.
          - Conversion factor : 1 bohr = 0.52917721 A

  Atomic type no.    1
  --------------------
  Nuclear charge:   6.00000
  Number of symmetry independent centers:    6
  Number of basis sets to read;    2
  Basis set file used for this atomic type with Z =   6 :
     "/gpfs/gss1/work/sdujk/foeroyingur/Programs/dalton/build/pe/develop/basis/aug-cc-pVDZ"

  Atomic type no.    2
  --------------------
  Nuclear charge:   8.00000
  Number of symmetry independent centers:    1
  Number of basis sets to read;    2
  Basis set file used for this atomic type with Z =   8 :
     "/gpfs/gss1/work/sdujk/foeroyingur/Programs/dalton/build/pe/develop/basis/aug-cc-pVDZ"

  Atomic type no.    3
  --------------------
  Nuclear charge:   1.00000
  Number of symmetry independent centers:   10
  Number of basis sets to read;    2
  Basis set file used for this atomic type with Z =   1 :
     "/gpfs/gss1/work/sdujk/foeroyingur/Programs/dalton/build/pe/develop/basis/aug-cc-pVDZ"


                         SYMGRP: Point group information
                         -------------------------------

@    Point group: C1 


                                 Isotopic Masses
                                 ---------------

                           C          12.000000
                           C          12.000000
                           C          12.000000
                           C          12.000000
                           C          12.000000
                           C          12.000000
                           O          15.994915
                           H           1.007825
                           H           1.007825
                           H           1.007825
                           H           1.007825
                           H           1.007825
                           H           1.007825
                           H           1.007825
                           H           1.007825
                           H           1.007825
                           H           1.007825

                       Total mass:    98.073165 amu
                       Natural abundance:  93.214 %

 Center-of-mass coordinates (a.u.):   -0.165293   -0.034050   -0.003848


  Atoms and basis sets
  --------------------

  Number of atom types :    3
  Total number of atoms:   17

  Basis set used is "aug-cc-pVDZ" from the basis set library.

  label    atoms   charge   prim   cont     basis
  ----------------------------------------------------------------------
  C           6    6.0000    35    23      [10s5p2d|4s3p2d]                                   
  O           1    8.0000    35    23      [10s5p2d|4s3p2d]                                   
  H          10    1.0000    11     9      [5s2p|3s2p]                                        
  ----------------------------------------------------------------------
  total:     17   54.0000   355   251
  ----------------------------------------------------------------------
  Spherical harmonic basis used.

  Threshold for neglecting AO integrals:  1.00D-12

  Max    interatomic separation is    5.7379 Angstrom (   10.8431 Bohr)
  between atoms   17 and    7, "H     " and "O     ".

  Min HX interatomic separation is    1.0890 Angstrom (    2.0578 Bohr)

  Min YX interatomic separation is    1.2053 Angstrom (    2.2777 Bohr)


  Bond distances (Angstrom):
  --------------------------

                  atom 1     atom 2       distance
                  ------     ------       --------
  bond distance:  C          C            1.535720
  bond distance:  C          C            1.544701
  bond distance:  C          C            1.531821
  bond distance:  C          C            1.525228
  bond distance:  C          C            1.527945
  bond distance:  C          C            1.523042
  bond distance:  O          C            1.205310
  bond distance:  H          C            1.096387
  bond distance:  H          C            1.089086
  bond distance:  H          C            1.095361
  bond distance:  H          C            1.089626
  bond distance:  H          C            1.093722
  bond distance:  H          C            1.094312
  bond distance:  H          C            1.088960
  bond distance:  H          C            1.091130
  bond distance:  H          C            1.092493
  bond distance:  H          C            1.091571


  Bond angles (degrees):
  ----------------------

                  atom 1     atom 2     atom 3         angle
                  ------     ------     ------         -----
  bond angle:     C          C          C            105.364
  bond angle:     C          C          H            110.483
  bond angle:     C          C          H            115.426
  bond angle:     C          C          H            107.097
  bond angle:     C          C          H            111.141
  bond angle:     H          C          H            107.075
  bond angle:     C          C          C            103.192
  bond angle:     C          C          C            114.912
  bond angle:     C          C          H            107.924
  bond angle:     C          C          C            114.223
  bond angle:     C          C          H            107.684
  bond angle:     C          C          H            108.500
  bond angle:     C          C          C            104.639
  bond angle:     C          C          H            112.311
  bond angle:     C          C          H            109.239
  bond angle:     C          C          H            113.375
  bond angle:     C          C          H            110.049
  bond angle:     H          C          H            107.199
  bond angle:     C          C          C            104.845
  bond angle:     C          C          H            111.438
  bond angle:     C          C          H            115.480
  bond angle:     C          C          H            107.093
  bond angle:     C          C          H            110.792
  bond angle:     H          C          H            106.941
  bond angle:     C          C          C            108.305
  bond angle:     C          C          O            125.968
  bond angle:     C          C          O            125.727
  bond angle:     C          C          H            111.528
  bond angle:     C          C          H            110.798
  bond angle:     C          C          H            111.172
  bond angle:     H          C          H            107.755
  bond angle:     H          C          H            107.665
  bond angle:     H          C          H            107.754




 Principal moments of inertia (u*A**2) and principal axes
 --------------------------------------------------------

   IA      93.071356          0.999431    0.033394   -0.004652
   IB     259.597027         -0.033384    0.999440    0.002170
   IC     331.289053          0.004722   -0.002014    0.999987


 Rotational constants
 --------------------

               A                   B                   C

           5430.0166           1946.7827           1525.4926 MHz
            0.181126            0.064938            0.050885 cm-1


@  Nuclear repulsion energy :  305.746814729497 Hartree


                     .---------------------------------------.
                     | Starting in Integral Section (HERMIT) |
                     `---------------------------------------'



 ***************************************************************************************
 ****************** Output from **INTEGRALS input processing (HERMIT) ******************
 ***************************************************************************************



    *************************************************************************
    ****************** Output from HERMIT input processing ******************
    *************************************************************************


 Default print level:        1

 Calculation of one-electron Hamiltonian integrals.

 The following one-electron property integrals are calculated as requested:
          - overlap integrals
          - dipole velocity integrals
          - electronic angular momentum around the origin
          - Rotational strength integrals

 Center of mass  (bohr):     -0.165292867436     -0.034049680011     -0.003848294319
 Operator center (bohr):      0.000000000000      0.000000000000      0.000000000000
 Gauge origin    (bohr):      0.000000000000      0.000000000000      0.000000000000
 Dipole origin   (bohr):      0.000000000000      0.000000000000      0.000000000000


     ************************************************************************
     ************************** Output from HERINT **************************
     ************************************************************************



                      Nuclear contribution to dipole moments
                      --------------------------------------

                 au               Debye          C m (/(10**-30)

      x      0.00000567         0.00001441         0.00004807
      y      0.00001323         0.00003362         0.00011215
      z      0.00000189         0.00000480         0.00001602


  Time used in ONEDRV     is       0.12 seconds
  Time used in GABGEN     is       0.13 seconds
  Total CPU  time used in HERMIT:   0.73 seconds
  Total wall time used in HERMIT:   0.76 seconds


                        .----------------------------------.
                        | End of Integral Section (HERMIT) |
                        `----------------------------------'



                   .--------------------------------------------.
                   | Starting in Wave Function Section (SIRIUS) |
                   `--------------------------------------------'


 *** Output from Huckel module :

     Using EWMO model:          T
     Using EHT  model:          F
     Number of Huckel orbitals each symmetry:   45

 EWMO - Energy Weighted Maximum Overlap - is a Huckel type method,
        which normally is better than Extended Huckel Theory.
 Reference: Linderberg and Ohrn, Propagators in Quantum Chemistry (Wiley, 1973)

 Huckel EWMO eigenvalues for symmetry :  1
          -20.684898     -11.362807     -11.353946     -11.351015     -11.348658
          -11.347275     -11.346497      -2.074196      -1.690960      -1.520690
           -1.333443      -1.119867      -1.109201      -0.865818      -0.823493
           -0.750562      -0.687440      -0.679623      -0.645719      -0.617647
           -0.586950      -0.524137      -0.471613      -0.458718      -0.444244
           -0.423457      -0.399814      -0.273544      -0.166150      -0.148435
           -0.145819      -0.137227      -0.135139      -0.125865      -0.123991
           -0.121628      -0.120046      -0.119186      -0.116366      -0.114176
           -0.113672      -0.109288      -0.106173      -0.105911      -0.101793

 **********************************************************************
 *SIRIUS* a direct, restricted step, second order MCSCF program       *
 **********************************************************************

 
     Date and time (Linux)  : Wed May 13 13:34:53 2020
     Host name              : s73p24.deic.sdu.dk                      

 Title lines from ".mol" input file:
     equat.xyz                                                               
     Generated by Open Babel. Check overall charge below.                    

 Print level on unit LUPRI =   2 is   0
 Print level on unit LUW4  =   2 is   5

@    Restricted, closed shell Kohn-Sham DFT calculation.

@    Time-dependent Kohn-Sham DFT calculation (TD-DFT).
 Fock matrices are calculated directly and in parallel without use of integrals on disk.

 Initial molecular orbitals are obtained according to
 ".MOSTART EWMO  " input option

     Wave function specification
     ============================
@    Wave function type        --- KS-DFT ---
@    Number of closed shell electrons          54
@    Number of electrons in active shells       0
@    Total charge of the molecule               0

@    Spin multiplicity and 2 M_S                1         0
@    Total number of symmetries                 1 (point group: C1 )
@    Reference state symmetry                   1 (irrep name : A  )
 
     This is a DFT calculation of type: B3LYP
 Weighted mixed functional:
               HF exchange:    0.20000
                       VWN:    0.19000
                       LYP:    0.81000
                     Becke:    0.72000
                    Slater:    0.80000

     Orbital specifications
     ======================
@    Abelian symmetry species          All |    1
@                                          |  A  
                                       --- |  ---
@    Occupied SCF orbitals              27 |   27
@    Secondary orbitals                224 |  224
@    Total number of orbitals          251 |  251
@    Number of basis functions         251 |  251

     Optimization information
     ========================
@    Number of configurations                 1
@    Number of orbital rotations           6048
     ------------------------------------------
@    Total number of variables             6049

     Maximum number of Fock   iterations      0
     Maximum number of DIIS   iterations     60
     Maximum number of QC-SCF iterations     60
     Threshold for SCF convergence     1.00D-05
 
     This is a DFT calculation of type: B3LYP
 Weighted mixed functional:
               HF exchange:    0.20000
                       VWN:    0.19000
                       LYP:    0.81000
                     Becke:    0.72000
                    Slater:    0.80000


 ***********************************************
 ***** DIIS acceleration of SCF iterations *****
 ***********************************************

 C1-DIIS algorithm; max error vectors =    8

 Iter      Total energy        Error norm    Delta(E)  DIIS dim.
 -----------------------------------------------------------------------------
   1  Screening settings (-IFTHRS, JTDIIS, DIFDEN, times)   -8    1    F  1.08D+00  1.08D+00
      K-S energy, electrons, error :    -35.363320645943  54.0000555828    5.56D-05
@  1    -308.411662408        4.57295D+00   -3.08D+02    1
      Virial theorem: -V/T =      2.014775
@    MULPOP   C       0.19; C      -0.29; C       0.33; C       0.12; C       1.12; C       0.40; O      -1.23; H      -0.02; H      -0.06; H      -0.18; 
@             H      -0.11; H      -0.12; H      -0.01; H      -0.05; H      -0.04; H      -0.03; H      -0.04; 
   1  Level shift: doubly occupied orbital energies shifted by -2.00D-01
 -----------------------------------------------------------------------------
   2  Screening settings (-IFTHRS, JTDIIS, DIFDEN, times)   -9    2    F  4.84D-01  4.84D-01
      K-S energy, electrons, error :    -36.434531655477  54.0000402886    4.03D-05
@  2    -308.019398153        5.77070D+00    3.92D-01    2
      Virial theorem: -V/T =      1.994244
@    MULPOP   C       0.79; C      -0.33; C       1.10; C       0.52; C      -1.49; C       0.90; O       1.33; H      -0.19; H      -0.35; H      -0.54; 
@             H      -0.40; H      -0.37; H      -0.24; H      -0.26; H      -0.16; H      -0.16; H      -0.15; 
   2  Level shift: doubly occupied orbital energies shifted by -2.00D-01
 -----------------------------------------------------------------------------
   3  Screening settings (-IFTHRS, JTDIIS, DIFDEN, times)   -9    3    F  4.81D-01  4.82D-01
      K-S energy, electrons, error :    -36.468764423916  54.0000377858    3.78D-05
@  3    -309.654440886        1.03761D+00   -1.64D+00    3
      Virial theorem: -V/T =      1.998020
@    MULPOP   C       0.96; C      -0.25; C       1.18; C       0.67; C       0.17; C       0.95; O      -0.51; H      -0.25; H      -0.39; H      -0.57; 
@             H      -0.42; H      -0.42; H      -0.27; H      -0.31; H      -0.19; H      -0.19; H      -0.17; 
   3  Level shift: doubly occupied orbital energies shifted by -5.00D-02
 -----------------------------------------------------------------------------
   4  Screening settings (-IFTHRS, JTDIIS, DIFDEN, times)   -9    4    F  4.72D-01  4.72D-01
      K-S energy, electrons, error :    -36.033665768883  54.0000391037    3.91D-05
@  4    -309.710314243        5.37351D-01   -5.59D-02    4
      Virial theorem: -V/T =      2.008930
@    MULPOP   C       1.13; C      -0.02; C       1.40; C       0.86; C       0.05; C       1.29; O      -0.52; H      -0.34; H      -0.47; H      -0.69; 
@             H      -0.52; H      -0.53; H      -0.36; H      -0.39; H      -0.30; H      -0.30; H      -0.28; 
   4  Level shift: doubly occupied orbital energies shifted by -5.00D-02
 -----------------------------------------------------------------------------
   5  Screening settings (-IFTHRS, JTDIIS, DIFDEN, times)  -10    5    F  4.72D-01  4.72D-01
      K-S energy, electrons, error :    -36.160473846870  54.0000394138    3.94D-05
@  5    -309.726281964        9.37025D-02   -1.60D-02    5
      Virial theorem: -V/T =      2.005699
@    MULPOP   C       1.13; C      -0.13; C       1.36; C       0.86; C       0.12; C       1.23; O      -0.60; H      -0.32; H      -0.46; H      -0.66; 
@             H      -0.50; H      -0.50; H      -0.35; H      -0.38; H      -0.28; H      -0.27; H      -0.26; 
   5  Level shift: doubly occupied orbital energies shifted by -1.25D-02
 -----------------------------------------------------------------------------
   6  Screening settings (-IFTHRS, JTDIIS, DIFDEN, times)  -10    6    F  4.80D-01  4.81D-01
      K-S energy, electrons, error :    -36.166229402206  54.0000391047    3.91D-05
@  6    -309.726696316        3.33629D-02   -4.14D-04    6
      Virial theorem: -V/T =      2.005576
@    MULPOP   C       1.11; C      -0.10; C       1.35; C       0.83; C       0.11; C       1.21; O      -0.58; H      -0.31; H      -0.45; H      -0.66; 
@             H      -0.50; H      -0.50; H      -0.34; H      -0.37; H      -0.28; H      -0.27; H      -0.26; 
 -----------------------------------------------------------------------------
   7  Screening settings (-IFTHRS, JTDIIS, DIFDEN, times)  -11    7    F  4.75D-01  4.75D-01
      K-S energy, electrons, error :    -36.164185140778  54.0000391127    3.91D-05
@  7    -309.726756539        8.18964D-03   -6.02D-05    7
      Virial theorem: -V/T =      2.005637
@    MULPOP   C       1.11; C      -0.11; C       1.35; C       0.83; C       0.11; C       1.22; O      -0.58; H      -0.31; H      -0.45; H      -0.65; 
@             H      -0.49; H      -0.50; H      -0.34; H      -0.37; H      -0.28; H      -0.27; H      -0.26; 
 -----------------------------------------------------------------------------
   8  Screening settings (-IFTHRS, JTDIIS, DIFDEN, times)  -11    8    F  4.72D-01  4.71D-01
      K-S energy, electrons, error :    -36.164402045324  54.0000391421    3.91D-05
@  8    -309.726760386        1.66533D-03   -3.85D-06    8
      Virial theorem: -V/T =      2.005633
@    MULPOP   C       1.11; C      -0.11; C       1.35; C       0.83; C       0.10; C       1.22; O      -0.58; H      -0.31; H      -0.45; H      -0.65; 
@             H      -0.49; H      -0.50; H      -0.34; H      -0.37; H      -0.28; H      -0.27; H      -0.26; 
 -----------------------------------------------------------------------------
   9  Screening settings (-IFTHRS, JTDIIS, DIFDEN, times)  -12    9    F  5.21D-01  5.21D-01
      K-S energy, electrons, error :    -36.164391303231  54.0000391329    3.91D-05
@  9    -309.726760545        5.07694D-04   -1.59D-07    8
      Virial theorem: -V/T =      2.005633
@    MULPOP   C       1.11; C      -0.11; C       1.35; C       0.83; C       0.10; C       1.22; O      -0.58; H      -0.31; H      -0.45; H      -0.65; 
@             H      -0.49; H      -0.50; H      -0.34; H      -0.37; H      -0.28; H      -0.27; H      -0.26; 
 -----------------------------------------------------------------------------
  10  Screening settings (-IFTHRS, JTDIIS, DIFDEN, times)  -12   10    F  4.84D-01  4.83D-01
      K-S energy, electrons, error :    -36.164390851235  54.0000391333    3.91D-05
@ 10    -309.726760561        9.99763D-05   -1.62D-08    8
      Virial theorem: -V/T =      2.005633
@    MULPOP   C       1.11; C      -0.11; C       1.35; C       0.83; C       0.10; C       1.22; O      -0.58; H      -0.31; H      -0.45; H      -0.65; 
@             H      -0.49; H      -0.50; H      -0.34; H      -0.37; H      -0.28; H      -0.27; H      -0.26; 
 -----------------------------------------------------------------------------
  11  Screening settings (-IFTHRS, JTDIIS, DIFDEN, times)  -12   11    F  4.72D-01  4.73D-01
      K-S energy, electrons, error :    -36.164389977237  54.0000391336    3.91D-05
@ 11    -309.726760562        3.35873D-05   -6.02D-10    8
      Virial theorem: -V/T =      2.005633
@    MULPOP   C       1.11; C      -0.11; C       1.35; C       0.83; C       0.10; C       1.22; O      -0.58; H      -0.31; H      -0.45; H      -0.65; 
@             H      -0.49; H      -0.50; H      -0.34; H      -0.37; H      -0.28; H      -0.27; H      -0.26; 
 -----------------------------------------------------------------------------
  12  Screening settings (-IFTHRS, JTDIIS, DIFDEN, times)  -12   12    F  4.79D-01  4.78D-01
      K-S energy, electrons, error :    -36.164390341046  54.0000391336    3.91D-05
@ 12    -309.726760562        8.52558D-06   -7.31D-11    8

@ *** DIIS converged in  12 iterations !
@     Converged SCF energy, gradient:   -309.726760561798    8.53D-06
    - total time used in SIRFCK :              0.00 seconds


 *** SCF orbital energy analysis ***

 Only the 20 lowest virtual orbital energies printed in each symmetry.

 Number of electrons :   54
 Orbital occupations :   27

 Sym       Kohn-Sham orbital energies

1 A     -19.13713613   -10.27143237   -10.19735185   -10.19000202   -10.18882913
        -10.18822766   -10.18081776    -1.04874533    -0.85192280    -0.75341946
         -0.71833021    -0.65631086    -0.57879938    -0.53635703    -0.49819610
         -0.46642122    -0.44324850    -0.43296646    -0.41811042    -0.41193626
         -0.38741041    -0.38018353    -0.35503993    -0.34263924    -0.33742304
         -0.33142517    -0.24486728    -0.02732035    -0.01264662     0.00365539
          0.00583587     0.01034080     0.02987791     0.03228113     0.03440722
          0.03944968     0.04299949     0.06161535     0.06999815     0.07250885
          0.08459298     0.08963805     0.09421876     0.09617301     0.09943326
          0.10186755     0.10511483

    E(LUMO) :    -0.02732035 au (symmetry 1)
  - E(HOMO) :    -0.24486728 au (symmetry 1)
  ------------------------------------------
    gap     :     0.21754693 au

 --- Writing SIRIFC interface file

 CPU and wall time for SCF :      10.864      10.979


                       .-----------------------------------.
                       | --- Final results from SIRIUS --- |
                       `-----------------------------------'


@    Spin multiplicity:           1
@    Spatial symmetry:            1 ( irrep  A   in C1  )
@    Total charge of molecule:    0

@    Final DFT energy:           -309.726760561798                 
@    Nuclear repulsion:           305.746814729497
@    Electronic energy:          -615.473575291295

@    Final gradient norm:           0.000008525584

 
     Date and time (Linux)  : Wed May 13 13:35:04 2020
     Host name              : s73p24.deic.sdu.dk                      

File label for MO orbitals:  13May20   FOCKDIIS

 (Only coefficients > 0.0100 are printed.)

 Molecular orbitals for symmetry species 1  (A  )
 ------------------------------------------------

    Orbital        18       19       20       21       22       23       24
   2 C   :1s     0.0018  -0.0487  -0.0662  -0.0291   0.0072  -0.1269  -0.0008
   3 C   :1s    -0.1164   0.0252   0.1130   0.0707  -0.1412  -0.2680   0.1414
   4 C   :1s     0.1573   0.1622   0.0423   0.2930  -0.3470  -0.1024  -0.1178
   5 C   :2px   -0.1715   0.1062  -0.1186  -0.1412   0.1581  -0.1812  -0.0191
   6 C   :2py    0.0405   0.1197   0.1953   0.1396  -0.1303  -0.3748  -0.0073
   7 C   :2pz    0.3640   0.2605  -0.1378   0.1317   0.1075  -0.0685  -0.1680
   8 C   :2px   -0.0305  -0.0492  -0.0742  -0.1186   0.1608   0.0426  -0.0707
   9 C   :2py   -0.1085  -0.1093  -0.1362  -0.1156   0.0208   0.0075   0.0926
  10 C   :2pz   -0.1623  -0.1339   0.0810  -0.0236  -0.0306   0.0816   0.0920
  11 C   :2px   -0.0467   0.0997   0.0353  -0.0372  -0.0611   0.0100  -0.0284
  12 C   :2py    0.0044  -0.0029   0.0296   0.0560  -0.0789  -0.0235   0.0168
  13 C   :2pz   -0.0503  -0.0642   0.0103  -0.0447  -0.0005   0.0739   0.0542
  14 C   :3d2-  -0.0073   0.0011   0.0010  -0.0106   0.0098  -0.0078   0.0023
  15 C   :3d1-  -0.0029  -0.0072   0.0006  -0.0034  -0.0001   0.0135   0.0068
  16 C   :3d0    0.0060   0.0042  -0.0102  -0.0029   0.0054  -0.0019  -0.0034
  18 C   :3d2+   0.0036   0.0065   0.0101   0.0124  -0.0024  -0.0010  -0.0035
  19 C   :3d2-  -0.0035   0.0054  -0.0353  -0.0302   0.0366   0.0069  -0.0283
  20 C   :3d1-   0.0656   0.0335   0.0206   0.0412   0.0049  -0.0635  -0.0069
  21 C   :3d0   -0.0205   0.0203   0.0569   0.0152  -0.0297  -0.0025   0.0027
  22 C   :3d1+  -0.0136   0.0073   0.0033   0.0229  -0.0107   0.0226   0.0144
  23 C   :3d2+   0.0065  -0.0543   0.0554   0.0199  -0.0174   0.0170   0.0123
  25 C   :1s     0.0497   0.0042   0.1146   0.0109  -0.0010  -0.0120  -0.0044
  26 C   :1s     0.0340  -0.0035   0.1641   0.0829  -0.0529  -0.0253   0.0142
  27 C   :1s    -0.0923   0.0452  -0.1764   0.2261   0.3724  -0.2129  -0.0755
  28 C   :2px    0.1313  -0.0627  -0.0138   0.2935  -0.0643   0.4478  -0.1194
  29 C   :2py    0.2237  -0.1014  -0.0371  -0.1180   0.0528   0.0750   0.0275
  30 C   :2pz   -0.0328  -0.0300   0.0902   0.1191   0.0878   0.0266  -0.0286
  31 C   :2px   -0.1307  -0.0290  -0.2054  -0.2389   0.0583  -0.2943   0.1322
  32 C   :2py   -0.0471  -0.0935   0.0564   0.0100   0.0232  -0.0253  -0.0372
  33 C   :2pz    0.0647  -0.0180   0.0618  -0.0824  -0.1440  -0.0394   0.0350
  34 C   :2px    0.0382   0.0297   0.0095   0.1214   0.0846   0.0058  -0.0577
  35 C   :2py    0.0265   0.1432  -0.0362   0.0168  -0.1307  -0.0637  -0.0870
  36 C   :2pz    0.0113   0.0490  -0.0226   0.0667   0.1095  -0.0699  -0.0131
  37 C   :3d2-   0.0000  -0.0113  -0.0024  -0.0021  -0.0041  -0.0174   0.0038
  38 C   :3d1-  -0.0042  -0.0112   0.0027   0.0022   0.0053   0.0017   0.0099
  40 C   :3d1+  -0.0040  -0.0057   0.0044  -0.0049  -0.0122   0.0129  -0.0009
  42 C   :3d2-   0.0344  -0.0772  -0.0230   0.0068  -0.0086   0.0306   0.0240
  43 C   :3d1-  -0.0164  -0.0653   0.0212   0.0143   0.0197   0.0012   0.0232
  44 C   :3d0   -0.0362  -0.0311   0.0102  -0.0057  -0.0205   0.0032  -0.0083
  45 C   :3d1+  -0.0424  -0.0266  -0.0364  -0.0732  -0.0215  -0.0658   0.0503
  46 C   :3d2+   0.0615  -0.0135   0.0238  -0.0257   0.0598  -0.0523  -0.0009
  48 C   :1s    -0.0913   0.0491  -0.0506  -0.0358   0.0648   0.0431  -0.0066
  49 C   :1s     0.0662  -0.0092  -0.1596  -0.1644   0.1068   0.1111  -0.0695
  50 C   :1s     0.2091  -0.1836   0.3620  -0.1857   0.2911   0.2461   0.0917
  51 C   :2px    0.0331  -0.1408  -0.1377   0.1649  -0.2862  -0.2647   0.1708
  52 C   :2py   -0.0672   0.1104  -0.1241   0.1042  -0.2828  -0.0763  -0.1243
  53 C   :2pz   -0.2209  -0.2175   0.1008   0.2295   0.1367  -0.0398   0.2609
  54 C   :2px    0.0809   0.0969   0.1957  -0.0225   0.1476   0.0715  -0.0455
  55 C   :2py    0.0760  -0.0938   0.2263   0.0268   0.1125   0.0775   0.0292
  56 C   :2pz    0.1453   0.1590  -0.0148  -0.1020  -0.0916   0.0025  -0.1976
  57 C   :2px   -0.0233  -0.0652  -0.0244  -0.0039  -0.0427  -0.0009   0.0387
  58 C   :2py   -0.0616   0.0327  -0.0278   0.0552  -0.0110  -0.0529   0.0088
  59 C   :2pz    0.0080   0.0302  -0.0348  -0.0041  -0.1000  -0.0309  -0.0838
  60 C   :3d2-  -0.0070   0.0037  -0.0119  -0.0034  -0.0070  -0.0031  -0.0035
  62 C   :3d0   -0.0061  -0.0059  -0.0008   0.0064   0.0020  -0.0044   0.0151
  63 C   :3d1+  -0.0046   0.0010   0.0027   0.0044   0.0103   0.0035   0.0115
  64 C   :3d2+   0.0011  -0.0001   0.0022   0.0014   0.0069   0.0183  -0.0057
  65 C   :3d2-  -0.0317  -0.0545  -0.0119  -0.0128   0.0234  -0.0093   0.0393
  66 C   :3d1-  -0.0048  -0.0058  -0.0424  -0.0052  -0.0534  -0.0382  -0.0171
  67 C   :3d0    0.0659   0.0012   0.0353  -0.0411  -0.0008   0.0202  -0.0404
  68 C   :3d1+  -0.0086  -0.0104  -0.0320   0.0014  -0.0364   0.0027   0.0138
  69 C   :3d2+   0.0239   0.0110  -0.0000   0.0167  -0.0352  -0.0131  -0.0307
  71 C   :1s     0.0600  -0.0075   0.0646  -0.0117   0.0580   0.1150  -0.0382
  72 C   :1s     0.0190   0.0033  -0.1015  -0.0819   0.1088   0.2183  -0.1484
  73 C   :1s    -0.1920   0.0688  -0.3020   0.0890  -0.2015   0.0521  -0.0998
  74 C   :2px   -0.0342   0.1941   0.0498  -0.1425   0.2608   0.3154  -0.1496
  75 C   :2py    0.1347   0.0467   0.3580  -0.0175   0.0360  -0.2134   0.0163
  76 C   :2pz   -0.0155  -0.0953   0.0428  -0.1837  -0.1173  -0.0199  -0.3530
  77 C   :2px    0.0850  -0.0216   0.2184   0.0267  -0.0208  -0.1481   0.0665
  78 C   :2py   -0.0979   0.0786  -0.0202   0.0352  -0.0086  -0.0702   0.0664
  79 C   :2pz   -0.0115   0.0136  -0.0109   0.1076   0.0732   0.0423   0.1856
  80 C   :2px   -0.0193  -0.0206  -0.0597   0.0051  -0.0397   0.0112  -0.0471
  81 C   :2py    0.0349  -0.0166   0.0529  -0.0221   0.0154  -0.0237   0.0398
  82 C   :2pz   -0.0169  -0.0019  -0.0092   0.0132   0.0363   0.0388   0.0874
  83 C   :3d2-  -0.0070   0.0040  -0.0132   0.0013  -0.0038   0.0025  -0.0019
  84 C   :3d1-  -0.0061  -0.0063   0.0047   0.0002  -0.0011  -0.0066  -0.0138
  85 C   :3d0    0.0041  -0.0009   0.0080   0.0067   0.0032  -0.0046   0.0143
  86 C   :3d1+  -0.0073  -0.0021   0.0010   0.0095   0.0107   0.0046   0.0109
  87 C   :3d2+   0.0007   0.0079   0.0100  -0.0093   0.0120   0.0027  -0.0027
  88 C   :3d2-  -0.0134  -0.0128  -0.0626  -0.0248  -0.0106   0.0267  -0.0469
  89 C   :3d1-  -0.0222  -0.0080  -0.0152   0.0038   0.0414   0.0392   0.0473
  90 C   :3d0   -0.0447   0.0077  -0.0493  -0.0092   0.0043   0.0249  -0.0317
  91 C   :3d1+  -0.0066  -0.0447   0.0405  -0.0125  -0.0175  -0.0226   0.0014
  92 C   :3d2+   0.0009   0.0257   0.0399   0.0214  -0.0041  -0.0351   0.0107
  94 C   :1s    -0.0563   0.0539  -0.0082   0.0723  -0.0967   0.0396  -0.0235
  95 C   :1s    -0.0743   0.1627   0.0820  -0.0697   0.1487  -0.0700  -0.0479
  96 C   :1s    -0.0966   0.0318   0.1934  -0.2501   0.2330   0.0133   0.0641
  97 C   :2px    0.1661  -0.1527  -0.0018   0.2669  -0.3033   0.0535  -0.0007
  98 C   :2py   -0.1470  -0.1057  -0.4857  -0.0458  -0.0733   0.0928  -0.0195
  99 C   :2pz    0.2499   0.1718  -0.0469  -0.1677  -0.0967   0.0881   0.2747
 100 C   :2px   -0.0588   0.0897  -0.0674  -0.1177   0.1383   0.0616  -0.1044
 101 C   :2py    0.0445   0.0688   0.3375   0.1254  -0.0912  -0.1887   0.1381
 102 C   :2pz   -0.0722  -0.0401  -0.0143   0.0106   0.0282   0.0383  -0.0354
 103 C   :2px   -0.0177  -0.0002   0.0219  -0.0279   0.0424   0.0043   0.0250
 104 C   :2py    0.0388  -0.0674  -0.0146   0.0262   0.0301  -0.0144   0.0053
 105 C   :2pz    0.0175   0.0208  -0.0003   0.0046  -0.0274  -0.0473  -0.0405
 106 C   :3d2-  -0.0038   0.0145   0.0159  -0.0064   0.0176   0.0108  -0.0056
 107 C   :3d1-  -0.0102  -0.0101   0.0043  -0.0038  -0.0016  -0.0020  -0.0180
 109 C   :3d1+  -0.0019  -0.0029  -0.0009   0.0134   0.0089  -0.0072  -0.0324
 110 C   :3d2+  -0.0092   0.0118  -0.0013  -0.0121   0.0112  -0.0180  -0.0035
 111 C   :3d2-  -0.0033  -0.0016   0.0168   0.0386  -0.0739  -0.0099   0.0152
 112 C   :3d1-  -0.0039  -0.0295   0.0006  -0.0235   0.0013   0.0151  -0.0029
 113 C   :3d0    0.0144  -0.0035  -0.0077   0.0107  -0.0015  -0.0047   0.0058
 114 C   :3d1+   0.0075   0.0192  -0.0159  -0.0124   0.0089   0.0287  -0.0001
 115 C   :3d2+   0.0044  -0.0295  -0.0556   0.0041  -0.0157   0.0729  -0.0525
 117 C   :1s    -0.0063   0.0020   0.0142   0.0135  -0.0102   0.0698  -0.0297
 118 C   :1s     0.0191  -0.0363   0.0468   0.1862  -0.0401   0.2117  -0.0792
 119 C   :1s    -0.0338  -0.0420  -0.0251  -0.2127  -0.2383   0.0360   0.0845
 120 C   :2px    0.0366  -0.0561  -0.1563  -0.2382   0.1919  -0.4109   0.1176
 121 C   :2py    0.3123  -0.4263   0.0023  -0.1081   0.1451   0.0232  -0.0749
 122 C   :2pz   -0.0896  -0.0533   0.1904  -0.3756  -0.3043   0.0134  -0.0004
 123 C   :2px   -0.0599   0.0523   0.0093  -0.0680  -0.1211  -0.0199   0.0415
 124 C   :2py   -0.1609   0.2941   0.0137   0.1256  -0.0925   0.0736  -0.0095
 125 C   :2pz    0.0510   0.0459  -0.1220   0.1603   0.2095  -0.0818   0.0124
 126 C   :2px    0.0009   0.0208   0.0150   0.0342   0.0381  -0.0139  -0.0130
 127 C   :2py   -0.0324   0.0337   0.0011   0.0035  -0.0134   0.0197   0.0151
 128 C   :2pz    0.0010  -0.0060  -0.0033   0.0300   0.0338  -0.0067   0.0011
 129 C   :3d2-   0.0014  -0.0095  -0.0026  -0.0075   0.0055  -0.0111   0.0005
 131 C   :3d0   -0.0035   0.0003   0.0047  -0.0128  -0.0134   0.0025   0.0006
 134 C   :3d2-  -0.0222   0.0197   0.0036   0.0042  -0.0275  -0.0170   0.0137
 135 C   :3d1-   0.0400  -0.0659   0.0003  -0.0264   0.0221  -0.0122   0.0018
 136 C   :3d0    0.0042  -0.0112  -0.0421   0.0211   0.0252  -0.0219   0.0124
 137 C   :3d1+  -0.0026  -0.0228   0.0117  -0.0106  -0.0222   0.0092  -0.0008
 138 C   :3d2+   0.0054   0.0122  -0.0085   0.0358   0.0245   0.0011  -0.0013
 140 O   :1s     0.0607  -0.0880  -0.0652   0.0508  -0.0548   0.0070  -0.0017
 141 O   :1s     0.0411  -0.0424  -0.0366   0.0425  -0.0410   0.0025   0.0057
 142 O   :1s     0.0633  -0.0572  -0.0727   0.0949  -0.0985   0.0039  -0.0053
 143 O   :2px   -0.0725   0.2593   0.3325  -0.1653   0.2615  -0.0340   0.0176
 144 O   :2py   -0.1935   0.0626  -0.3001  -0.2189   0.1127  -0.0848  -0.0034
 145 O   :2pz    0.2357   0.1582  -0.0649  -0.1992  -0.1596   0.1603   0.5593
 146 O   :2px    0.0248  -0.0532  -0.0469   0.0487  -0.0658   0.0152   0.0006
 147 O   :2py    0.0182  -0.0148  -0.0039   0.0202  -0.0247   0.0154  -0.0033
 148 O   :2pz   -0.0085  -0.0037   0.0013   0.0016   0.0092   0.0014  -0.0164
 150 O   :2py   -0.0055   0.0076  -0.0168  -0.0094  -0.0058  -0.0090   0.0008
 151 O   :2pz    0.0100   0.0091  -0.0068  -0.0180  -0.0035   0.0287   0.0558
 155 O   :3d1+   0.0080   0.0052  -0.0025  -0.0055  -0.0046   0.0042   0.0135
 156 O   :3d2+   0.0014   0.0059   0.0127  -0.0011   0.0047  -0.0009   0.0004
 157 O   :3d2-  -0.0008  -0.0063  -0.0145   0.0006  -0.0053   0.0071  -0.0022
 159 O   :3d0   -0.0027   0.0052   0.0058  -0.0071   0.0108  -0.0040  -0.0005
 160 O   :3d1+   0.0068   0.0040  -0.0010  -0.0065  -0.0020   0.0041   0.0102
 161 O   :3d2+   0.0048  -0.0060   0.0053   0.0096  -0.0112  -0.0017   0.0036
 162 H   :1s     0.2963   0.1986  -0.2600   0.0332   0.1729  -0.0528  -0.1790
 163 H   :1s     0.0924  -0.0674  -0.0513  -0.0425  -0.0090  -0.1061  -0.0055
 164 H   :1s     0.0273   0.0237  -0.0111   0.0432   0.0042  -0.0414  -0.0275
 169 H   :2py    0.0089  -0.0074  -0.0252  -0.0157  -0.0008   0.0061  -0.0109
 170 H   :2pz   -0.0552   0.0040   0.0194   0.0036  -0.0016   0.0386   0.0086
 171 H   :1s    -0.2353  -0.2973  -0.1181  -0.2097   0.0384   0.3236   0.1253
 172 H   :1s    -0.1172  -0.1071   0.0011  -0.0651   0.0086   0.0795   0.0663
 173 H   :1s    -0.0178  -0.0315   0.0073  -0.0097  -0.0422   0.0251   0.0259
 177 H   :2px   -0.0022  -0.0052  -0.0035  -0.0076  -0.0048   0.0142   0.0053
 178 H   :2py   -0.0334  -0.0337  -0.0255  -0.0261   0.0206   0.0340   0.0114
 179 H   :2pz   -0.0247  -0.0205   0.0183  -0.0029  -0.0088   0.0089   0.0144
 180 H   :1s     0.0753   0.0263  -0.0253  -0.1185  -0.0935  -0.0272   0.0382
 181 H   :1s     0.0939   0.0089   0.0580  -0.0383  -0.0949  -0.0285   0.0668
 182 H   :1s     0.0058   0.0211  -0.0097   0.0287   0.0575  -0.0354  -0.0008
 186 H   :2px   -0.0196  -0.0067   0.0114  -0.0220  -0.0184  -0.0045   0.0074
 187 H   :2py   -0.0205  -0.0233   0.0061   0.0148   0.0084  -0.0007   0.0150
 188 H   :2pz    0.0320   0.0005   0.0192  -0.0230  -0.0413  -0.0149   0.0200
 189 H   :1s     0.0101   0.1490  -0.2516   0.0303  -0.4031  -0.1637  -0.1660
 190 H   :1s    -0.0019   0.0872  -0.1513  -0.0433  -0.1545  -0.1017  -0.1027
 191 H   :1s     0.0177   0.0105  -0.0164  -0.0190  -0.0375   0.0101  -0.0415
 195 H   :2px   -0.0015  -0.0158   0.0279  -0.0014   0.0238   0.0314   0.0162
 196 H   :2py    0.0183  -0.0240   0.0503   0.0053   0.0473   0.0299   0.0160
 197 H   :2pz    0.0213   0.0190  -0.0094  -0.0123  -0.0151  -0.0014  -0.0240
 198 H   :1s    -0.2606  -0.2087   0.0333   0.2467   0.0982  -0.0852   0.3332
 199 H   :1s    -0.1487  -0.0199  -0.0696   0.1012   0.0213  -0.0165   0.1721
 200 H   :1s    -0.0014  -0.0240   0.0208   0.0043   0.0619   0.0010   0.0659
 204 H   :2px    0.0123   0.0082   0.0065  -0.0173   0.0016   0.0026  -0.0244
 205 H   :2py    0.0103   0.0118   0.0090  -0.0064   0.0179   0.0105  -0.0059
 206 H   :2pz    0.0572   0.0196   0.0078  -0.0466  -0.0187   0.0006  -0.0649
 207 H   :1s     0.1028   0.0489   0.1120   0.2097   0.0997  -0.0691   0.4144
 208 H   :1s    -0.0032  -0.0672   0.0129   0.0367   0.0570   0.0753   0.1038
 209 H   :1s    -0.0043   0.0009  -0.0091   0.0177   0.0053   0.0137   0.0575
 213 H   :2px   -0.0046  -0.0197   0.0183   0.0132   0.0003  -0.0024   0.0301
 214 H   :2py   -0.0081   0.0060  -0.0126  -0.0075   0.0064   0.0077  -0.0083
 215 H   :2pz   -0.0074  -0.0169  -0.0045   0.0213   0.0256   0.0292   0.0356
 216 H   :1s     0.1206  -0.1531   0.2426  -0.0666  -0.1863  -0.2668  -0.1865
 217 H   :1s     0.0821  -0.0243   0.0303  -0.0724  -0.0561  -0.0382  -0.0990
 218 H   :1s    -0.0045  -0.0147  -0.0078  -0.0129  -0.0292  -0.0037  -0.0687
 222 H   :2px    0.0302  -0.0022   0.0221  -0.0068  -0.0176  -0.0291  -0.0180
 223 H   :2py   -0.0226   0.0099  -0.0249   0.0154   0.0130   0.0149  -0.0017
 224 H   :2pz   -0.0062   0.0089   0.0066   0.0178   0.0101  -0.0021   0.0283
 225 H   :1s    -0.2297   0.3810  -0.1168   0.1917   0.0467  -0.1097   0.0980
 226 H   :1s    -0.0225   0.1320  -0.0112   0.1437   0.0030   0.0390  -0.0197
 227 H   :1s    -0.0153   0.0377  -0.0120   0.0224  -0.0091  -0.0014   0.0093
 231 H   :2px    0.0029  -0.0240   0.0071  -0.0130  -0.0086  -0.0037   0.0010
 232 H   :2py   -0.0237   0.0572  -0.0063   0.0417  -0.0004  -0.0001   0.0013
 233 H   :2pz   -0.0046   0.0110  -0.0133   0.0213   0.0073  -0.0050   0.0036
 234 H   :1s    -0.1090  -0.0220   0.1966  -0.3769  -0.3355   0.0479  -0.0077
 235 H   :1s     0.0080   0.0116   0.0952  -0.0493  -0.0980   0.0891  -0.0193
 236 H   :1s    -0.0083   0.0081   0.0030  -0.0353  -0.0442   0.0207  -0.0075
 240 H   :2px    0.0029   0.0054  -0.0085   0.0150   0.0174  -0.0076  -0.0048
 241 H   :2py   -0.0091   0.0147   0.0046  -0.0012  -0.0145   0.0021   0.0004
 242 H   :2pz    0.0069  -0.0020  -0.0384   0.0453   0.0499  -0.0245   0.0037
 243 H   :1s     0.2582  -0.3197  -0.1547  -0.1240   0.3262  -0.2588   0.0087
 244 H   :1s     0.0505  -0.1308   0.0053   0.0082   0.1183   0.0129  -0.0284
 245 H   :1s     0.0157  -0.0476  -0.0009  -0.0194   0.0238  -0.0160   0.0048
 249 H   :2px   -0.0217   0.0406   0.0059   0.0092  -0.0441   0.0161   0.0027
 250 H   :2py   -0.0201   0.0381   0.0033   0.0105  -0.0346   0.0066   0.0072
 251 H   :2pz    0.0053  -0.0029  -0.0134   0.0043   0.0163  -0.0012  -0.0032

    Orbital        25       26       27       28       29       30       31
   2 C   :1s    -0.0981  -0.0172  -0.1193   0.0094   0.1152   0.0122  -0.0035
   3 C   :1s    -0.0651  -0.0823   0.0466  -0.0673   0.1485  -0.0061  -0.0357
   4 C   :1s    -0.1823   0.2740  -0.0168   0.1282   1.2662   0.4507   0.0001
   5 C   :2px   -0.2007   0.0479   0.3590  -0.0066  -0.0130  -0.0306  -0.0090
   6 C   :2py   -0.2433   0.0765  -0.1287  -0.0259  -0.0619   0.0504  -0.0357
   7 C   :2pz    0.2293   0.1869   0.0150  -0.0042   0.0352  -0.0190  -0.0939
   8 C   :2px    0.0219   0.0593  -0.0939   0.0436   0.0508  -0.0918  -0.1060
   9 C   :2py    0.1305  -0.1643   0.1457  -0.0587  -0.0709   0.0113   0.0496
  10 C   :2pz   -0.1195  -0.1232  -0.0206  -0.0330   0.0057  -0.0061  -0.0926
  11 C   :2px    0.0778   0.0309  -0.0051   0.1054   0.1643  -0.8132   0.5408
  12 C   :2py   -0.0495   0.0437  -0.0157  -0.0723   0.0337   0.0071  -0.0263
  13 C   :2pz   -0.0168  -0.0342   0.0007  -0.0662   0.1293   0.0546  -0.1479
  15 C   :3d1-  -0.0064  -0.0145  -0.0021  -0.0306  -0.0004   0.0016   0.0034
  16 C   :3d0    0.0128   0.0125  -0.0001   0.0102  -0.0002  -0.0033  -0.0027
  17 C   :3d1+   0.0029  -0.0076  -0.0008   0.0242  -0.0091  -0.0035  -0.0082
  18 C   :3d2+  -0.0088   0.0116  -0.0056   0.0044   0.0001   0.0036  -0.0012
  19 C   :3d2-  -0.0186   0.0346  -0.0107   0.0052   0.0038  -0.0079  -0.0339
  20 C   :3d1-  -0.0185   0.0396  -0.0023   0.0082  -0.0079   0.0098   0.0028
  21 C   :3d0   -0.0249   0.0068  -0.0367   0.0039   0.0169  -0.0093  -0.0488
  22 C   :3d1+  -0.0397  -0.0101  -0.0126  -0.0150  -0.0143   0.0180  -0.0094
  23 C   :3d2+  -0.0825   0.0282  -0.0004  -0.0116  -0.0034   0.0283   0.0170
  25 C   :1s    -0.0139  -0.0566   0.0020  -0.0166   0.0559   0.0370   0.0942
  26 C   :1s    -0.1484  -0.1563  -0.0456  -0.0299   0.1108   0.1077   0.1104
  27 C   :1s    -0.3012  -0.4918   0.0226   0.0495  -1.1177  -0.1670  -3.2034
  28 C   :2px   -0.0216   0.0800  -0.1066   0.0170  -0.0177   0.0478  -0.0062
  29 C   :2py    0.4275  -0.3001  -0.0872   0.0523  -0.0121  -0.0256   0.0020
  30 C   :2pz   -0.2667  -0.4013  -0.0021  -0.0314  -0.1310  -0.0251  -0.1173
  31 C   :2px    0.1333  -0.0196   0.1727   0.0412   0.0085  -0.2188  -0.0351
  32 C   :2py   -0.2267   0.1343  -0.0375  -0.0913   0.0601   0.1520   0.0427
  33 C   :2pz    0.2073   0.2747  -0.0028   0.0106   0.0228  -0.0386   0.0960
  34 C   :2px   -0.0224  -0.0050  -0.0605  -0.2971   0.3411  -1.3737   0.4439
  35 C   :2py    0.0352  -0.0099   0.0078   0.3277  -0.0967   0.4872  -0.5182
  36 C   :2pz   -0.0153  -0.0495  -0.0057  -0.0870  -0.6421  -0.3715  -1.2993
  37 C   :3d2-  -0.0136   0.0096   0.0055  -0.0021   0.0017   0.0047  -0.0023
  39 C   :3d0    0.0204   0.0240   0.0006  -0.0059  -0.0018  -0.0005  -0.0078
  41 C   :3d2+  -0.0138   0.0073  -0.0120   0.0062  -0.0027  -0.0047   0.0002
  42 C   :3d2-  -0.0561   0.0134  -0.0081  -0.0206  -0.0126   0.0085   0.0173
  43 C   :3d1-  -0.0608   0.0500  -0.0196  -0.0412   0.0125   0.0101   0.0333
  44 C   :3d0   -0.0323  -0.0420   0.0011   0.0030   0.0080   0.0141  -0.0263
  45 C   :3d1+   0.0195  -0.0075   0.0507   0.0100  -0.0119   0.0066  -0.0013
  46 C   :3d2+   0.0286   0.0542   0.0019   0.0701  -0.0154  -0.0869  -0.0263
  48 C   :1s     0.0353  -0.0882  -0.0161   0.0509   0.1159   0.0341  -0.0725
  49 C   :1s     0.0575  -0.0440   0.0330   0.0560   0.1008  -0.0387  -0.0928
  50 C   :1s     0.2756  -0.0933  -0.2129  -0.5795   1.7005   0.6340   1.9555
  51 C   :2px    0.1363  -0.2101   0.1153  -0.0217   0.0692   0.0536  -0.0089
  52 C   :2py   -0.3112   0.3081   0.0298   0.0494   0.0847   0.0498  -0.0197
  53 C   :2pz    0.0890   0.2992  -0.0173  -0.0132   0.0522  -0.0064  -0.1243
  54 C   :2px    0.0724  -0.0581  -0.0514   0.0745   0.0550  -0.0900  -0.1106
  55 C   :2py    0.0805  -0.0004  -0.1197  -0.0532   0.1098   0.1686   0.0380
  56 C   :2pz   -0.1353  -0.1779   0.0150  -0.0287   0.0561   0.0428  -0.0565
  57 C   :2px   -0.0661   0.0897   0.0602   0.0404   0.3004  -0.4085   0.0500
  58 C   :2py   -0.0148  -0.0018   0.0014   0.2196  -0.1567   0.4591  -0.7834
  59 C   :2pz   -0.0477  -0.0109   0.0250   0.1505  -0.0023  -0.1331  -0.3442
  60 C   :3d2-  -0.0092   0.0068   0.0140  -0.0056   0.0002  -0.0023   0.0019
  61 C   :3d1-   0.0144   0.0010  -0.0010   0.0107   0.0033  -0.0014   0.0043
  62 C   :3d0    0.0131   0.0161  -0.0008   0.0025   0.0018  -0.0049   0.0023
  64 C   :3d2+   0.0006   0.0113  -0.0031   0.0028   0.0000   0.0075  -0.0005
  65 C   :3d2-  -0.0212   0.0512   0.0108  -0.0483   0.0211   0.0207   0.0279
  66 C   :3d1-  -0.0236   0.0200   0.0273   0.0278  -0.0089  -0.0488  -0.0031
  67 C   :3d0   -0.0109  -0.0164  -0.0202  -0.0129   0.0150  -0.0074  -0.0039
  68 C   :3d1+  -0.0372  -0.0008   0.0082  -0.0246   0.0028   0.0168   0.0038
  69 C   :3d2+  -0.0101   0.0056  -0.0102  -0.0032   0.0045   0.0268   0.0212
  71 C   :1s    -0.0114   0.0058   0.1264   0.0208   0.0852   0.1565  -0.0113
  72 C   :1s     0.0797   0.0246  -0.0207   0.1097   0.1158   0.0645  -0.0913
  73 C   :1s    -0.1969   0.2886   0.1139   0.2444   0.3293  -2.0085   0.3985
  74 C   :2px   -0.1588   0.1612  -0.1470   0.0066  -0.0920  -0.0472   0.0287
  75 C   :2py   -0.0168  -0.0545  -0.3404  -0.0053   0.0229   0.1057  -0.0303
  76 C   :2pz    0.0272  -0.1169   0.0388  -0.0211  -0.0327  -0.0474  -0.0893
  77 C   :2px    0.0822  -0.1765  -0.0037   0.0225   0.0203  -0.0510  -0.0596
  78 C   :2py   -0.1065   0.0408   0.1697  -0.0450   0.1366   0.0031   0.0357
  79 C   :2pz   -0.0024   0.0922  -0.0222  -0.0323   0.0062   0.0001  -0.1177
  80 C   :2px   -0.0875   0.0651   0.0492   0.0427  -0.0927  -0.6146   0.0034
  81 C   :2py   -0.0212  -0.0126   0.0025  -0.0327   0.2387   0.7502  -0.2630
  82 C   :2pz   -0.0007   0.0418  -0.0022  -0.0904   0.0091   0.0050  -0.3920
  83 C   :3d2-  -0.0090   0.0127   0.0065  -0.0005   0.0036   0.0008  -0.0007
  84 C   :3d1-   0.0040  -0.0031   0.0006   0.0391  -0.0070  -0.0033  -0.0081
  85 C   :3d0    0.0037   0.0045   0.0004  -0.0105  -0.0004  -0.0012   0.0025
  86 C   :3d1+   0.0005   0.0142  -0.0020  -0.0048   0.0038   0.0006  -0.0029
  88 C   :3d2-  -0.0245   0.0455  -0.0020   0.0011  -0.0305  -0.0168   0.0162
  89 C   :3d1-   0.0062   0.0297  -0.0060  -0.0107   0.0193   0.0158  -0.0066
  90 C   :3d0   -0.0170   0.0235   0.0361  -0.0017   0.0141  -0.0108   0.0368
  91 C   :3d1+   0.0169  -0.0171  -0.0053  -0.0005   0.0002  -0.0123  -0.0062
  92 C   :3d2+  -0.0295  -0.0162   0.0182   0.0001   0.0248  -0.0037  -0.0018
  94 C   :1s    -0.0401   0.0392   0.0010  -0.0008  -0.0205   0.0230  -0.0004
  95 C   :1s    -0.1272   0.0637   0.0068   0.0265   0.1658  -0.0460  -0.0775
  96 C   :1s     0.1653  -0.1522  -0.0091   0.0116   0.7616   0.3806   0.3417
  97 C   :2px   -0.0049   0.0207  -0.0947  -0.0191  -0.0131   0.0344  -0.0010
  98 C   :2py    0.0021   0.0275   0.2366  -0.0225   0.0164  -0.0349   0.0160
  99 C   :2pz   -0.0994  -0.0256  -0.0071  -0.7125   0.1428   0.0559   0.1588
 100 C   :2px   -0.0838   0.1043  -0.0384   0.0300   0.0032  -0.0406  -0.0402
 101 C   :2py   -0.1163  -0.0744   0.0923  -0.0739   0.0600   0.0514   0.0890
 102 C   :2pz    0.0279   0.0086  -0.0189  -0.1197   0.0250   0.0372   0.0605
 103 C   :2px    0.0660  -0.0453  -0.0574  -0.0403   0.0283  -0.2146   0.2174
 104 C   :2py   -0.0637  -0.0160   0.1220  -0.0431   0.1093   1.2562  -0.5986
 105 C   :2pz    0.0032   0.0031   0.0023  -0.2974   0.0092   0.1244   0.0993
 106 C   :3d2-  -0.0064   0.0033   0.0480  -0.0022  -0.0039  -0.0029   0.0021
 107 C   :3d1-   0.0011  -0.0065  -0.0025  -0.0139  -0.0010  -0.0004   0.0023
 109 C   :3d1+   0.0167   0.0071  -0.0003  -0.0335   0.0067   0.0019   0.0059
 110 C   :3d2+  -0.0160   0.0040  -0.0446  -0.0009  -0.0042   0.0017  -0.0014
 111 C   :3d2-  -0.0562   0.0195   0.0461  -0.0288  -0.0120  -0.0055   0.0487
 112 C   :3d1-   0.0119  -0.0031  -0.0062  -0.0201   0.0011  -0.0020   0.0051
 113 C   :3d0    0.0069  -0.0006   0.0012   0.0012  -0.0458  -0.0105   0.0004
 114 C   :3d1+   0.0094   0.0063  -0.0078  -0.0600   0.0109   0.0080   0.0024
 115 C   :3d2+  -0.0450   0.0648  -0.0469   0.0132  -0.0130   0.0264  -0.0046
 117 C   :1s    -0.0624  -0.0208  -0.0496   0.0379   0.1318  -0.1758  -0.0001
 118 C   :1s    -0.1619  -0.0405  -0.0942  -0.0182   0.2090  -0.0443  -0.0318
 119 C   :1s     0.1197   0.0915   0.0784   0.5862   0.9798   1.0406   0.1583
 120 C   :2px    0.1138  -0.0085   0.1017  -0.0182   0.1156  -0.0574   0.0215
 121 C   :2py   -0.2801   0.1715   0.0137   0.0093  -0.0242   0.0425  -0.0276
 122 C   :2pz    0.1421   0.1903   0.0168  -0.0485   0.0472  -0.0163  -0.1113
 123 C   :2px    0.1341   0.0126   0.0716   0.0813   0.0735  -0.1713  -0.0418
 124 C   :2py    0.1742  -0.1499  -0.0445  -0.0003  -0.0137   0.0854  -0.0433
 125 C   :2pz   -0.0374  -0.1219   0.0073   0.0316  -0.0233  -0.0440  -0.0485
 126 C   :2px   -0.0037  -0.0147  -0.0004  -0.0858   0.1950  -0.9627   0.1166
 127 C   :2py    0.0414  -0.0120  -0.0089   0.0256  -0.0662   0.2901  -0.0571
 128 C   :2pz   -0.0154  -0.0310  -0.0102  -0.0618   0.1685  -0.1617  -0.2734
 129 C   :3d2-  -0.0160   0.0132   0.0062  -0.0003  -0.0001  -0.0005  -0.0004
 131 C   :3d0    0.0120   0.0158  -0.0009  -0.0005   0.0014   0.0004  -0.0006
 132 C   :3d1+   0.0033   0.0107  -0.0013  -0.0019   0.0053   0.0039   0.0053
 133 C   :3d2+  -0.0134   0.0064   0.0002  -0.0029   0.0012   0.0022  -0.0006
 134 C   :3d2-   0.0183   0.0055   0.0001   0.0099   0.0052  -0.0228  -0.0060
 135 C   :3d1-  -0.0354   0.0377   0.0049   0.0021  -0.0034  -0.0205   0.0092
 136 C   :3d0   -0.0190  -0.0306   0.0107  -0.0014  -0.0134   0.0057   0.0024
 137 C   :3d1+  -0.0193   0.0050  -0.0082  -0.0095   0.0074   0.0350  -0.0021
 138 C   :3d2+  -0.0176  -0.0074  -0.0140  -0.0171  -0.0150   0.0223   0.0185
 140 O   :1s    -0.0042   0.0057   0.0008   0.0021   0.0274   0.0350  -0.0035
 141 O   :1s     0.0196  -0.0083  -0.0000   0.0018  -0.0053   0.0101  -0.0053
 142 O   :1s     0.0053   0.0094  -0.0002  -0.0030  -0.1856  -0.0555  -0.0607
 143 O   :2px   -0.0400  -0.0095   0.2889   0.0116  -0.0097  -0.0293   0.0008
 144 O   :2py   -0.0587   0.0177  -0.7207   0.0129  -0.0215   0.0337  -0.0100
 145 O   :2pz   -0.2158  -0.0584   0.0134   0.5031  -0.0978  -0.0465  -0.1583
 146 O   :2px    0.0053   0.0053  -0.0005  -0.0003  -0.0118   0.0014   0.0021
 147 O   :2py    0.0093   0.0037  -0.0009   0.0003  -0.0114  -0.0033   0.0009
 148 O   :2pz    0.0075   0.0031  -0.0008   0.0445  -0.0093  -0.0047  -0.0218
 149 O   :2px   -0.0094   0.0087   0.0505   0.0104  -0.0684  -0.0220  -0.0293
 150 O   :2py   -0.0021   0.0039  -0.1269   0.0059  -0.0503  -0.1495   0.0505
 151 O   :2pz   -0.0178  -0.0063   0.0002   0.2471  -0.0435  -0.0582  -0.0652
 162 H   :1s     0.2787   0.2017   0.0702   0.2305  -0.0116  -0.0368  -0.0517
 163 H   :1s     0.0634   0.0736   0.1163   0.0992  -0.2243   0.0565   0.4080
 164 H   :1s     0.0230   0.0284   0.0271   0.4924  -0.3116   0.0212   0.3693
 168 H   :2px    0.0160   0.0032   0.0004   0.0266  -0.0039   0.0185   0.0190
 169 H   :2py    0.0235   0.0076   0.0134  -0.0249  -0.0019  -0.0145   0.0849
 170 H   :2pz   -0.0153  -0.0328  -0.0278   0.0120   0.0089  -0.0061  -0.0355
 171 H   :1s     0.0369  -0.2378   0.0297  -0.1632   0.0060  -0.0156   0.0520
 172 H   :1s    -0.0066  -0.1348   0.0990  -0.1426  -0.1918   0.0167   0.0204
 173 H   :1s    -0.0242  -0.0247   0.0241  -0.4104  -0.1712   0.3007  -0.3677
 177 H   :2px   -0.0115  -0.0049  -0.0005  -0.0213  -0.0144   0.0449  -0.0023
 178 H   :2py    0.0119  -0.0419   0.0281   0.0134  -0.0169  -0.0240   0.0160
 179 H   :2pz   -0.0152  -0.0172   0.0088   0.0054  -0.0002   0.0065   0.0257
 180 H   :1s     0.3433   0.4396  -0.0012  -0.0343   0.0475  -0.0052  -0.0483
 181 H   :1s     0.2098   0.2760   0.0147  -0.0050  -0.1063  -0.1487   0.1989
 182 H   :1s     0.0110  -0.0004   0.0013  -0.0997  -0.5941  -0.6335  -2.2113
 186 H   :2px   -0.0005   0.0005   0.0075  -0.0159   0.0005   0.0704   0.0069
 187 H   :2py   -0.0190   0.0075  -0.0057  -0.0052  -0.0112  -0.0430   0.0060
 188 H   :2pz    0.0809   0.1007   0.0056   0.0290   0.0228  -0.0049   0.1344
 189 H   :1s    -0.2481  -0.0432   0.1225  -0.0429  -0.0001  -0.0072  -0.0077
 190 H   :1s    -0.1234  -0.0685   0.1216   0.0323  -0.2885  -0.2044  -0.0210
 191 H   :1s    -0.0123  -0.0259   0.0197  -0.2103  -0.5715  -0.7473   0.4220
 195 H   :2px    0.0232   0.0062  -0.0177  -0.0109  -0.0042   0.0435   0.0141
 196 H   :2py    0.0396   0.0167  -0.0329  -0.0187   0.0061  -0.0082  -0.0025
 197 H   :2pz   -0.0089  -0.0182   0.0048   0.0213  -0.0007   0.0079   0.0329
 198 H   :1s     0.1521   0.2951  -0.0009   0.0323   0.0375  -0.0084   0.0110
 199 H   :1s     0.1477   0.1301   0.0056   0.0740  -0.2842  -0.0123   0.2656
 200 H   :1s     0.0359   0.0186  -0.0140  -0.0848  -0.1633   0.1064   1.3664
 204 H   :2px   -0.0031  -0.0085  -0.0007   0.0034   0.0060   0.0181   0.0209
 205 H   :2py   -0.0049  -0.0212  -0.0045   0.0078   0.0005  -0.0085  -0.0495
 206 H   :2pz   -0.0565  -0.0450   0.0080  -0.0052   0.0297   0.0036   0.0113
 207 H   :1s     0.0137   0.0797  -0.0716  -0.2201   0.0474   0.0270   0.0474
 208 H   :1s     0.0593   0.0412  -0.1109  -0.1233  -0.1663  -0.0423  -0.2563
 209 H   :1s    -0.0015   0.0391  -0.0257  -0.5407  -0.1888  -0.9751  -0.4742
 213 H   :2px    0.0080   0.0019  -0.0115  -0.0011  -0.0222   0.0025  -0.0392
 214 H   :2py   -0.0036   0.0031   0.0077  -0.0395   0.0098  -0.0024   0.0423
 215 H   :2pz    0.0139   0.0216  -0.0253   0.0141  -0.0032   0.0389  -0.0118
 216 H   :1s     0.1108  -0.2380  -0.0379   0.1634  -0.0416  -0.0089  -0.0489
 217 H   :1s     0.0130  -0.1062  -0.0792   0.1020  -0.2960  -0.1443   0.0918
 218 H   :1s     0.0058  -0.0175  -0.0142   0.3878  -0.4528  -1.3884   0.9015
 222 H   :2px   -0.0022  -0.0337  -0.0113   0.0049  -0.0389   0.0195   0.0048
 223 H   :2py   -0.0104   0.0218   0.0180   0.0255   0.0043  -0.0215   0.0012
 224 H   :2pz   -0.0001   0.0123   0.0081   0.0065   0.0185   0.0009   0.0092
 225 H   :1s     0.2304  -0.2923  -0.0182   0.0050  -0.0071  -0.0133   0.0154
 226 H   :1s     0.0638  -0.1429  -0.0680  -0.0448  -0.2159   0.2698   0.0221
 227 H   :1s     0.0267  -0.0343  -0.0178  -0.0080  -0.4810   1.2921  -0.7705
 231 H   :2px   -0.0165   0.0246   0.0040  -0.0009   0.0046  -0.0085  -0.0289
 232 H   :2py    0.0287  -0.0493  -0.0196   0.0004  -0.0040   0.0097   0.0061
 233 H   :2pz    0.0025  -0.0189  -0.0070   0.0021  -0.0106   0.0100   0.0500
 234 H   :1s     0.1741   0.2287  -0.0105  -0.0259   0.0277   0.0073  -0.0188
 235 H   :1s     0.0544   0.1474  -0.0114  -0.0438  -0.0660   0.0645   0.2186
 236 H   :1s     0.0128   0.0350  -0.0003   0.0248  -0.4206   0.7657   1.0968
 240 H   :2px   -0.0005  -0.0082  -0.0008  -0.0145  -0.0177   0.0134  -0.0283
 241 H   :2py    0.0079   0.0003  -0.0001  -0.0081   0.0107  -0.0053   0.0155
 242 H   :2pz   -0.0247  -0.0497   0.0012   0.0160  -0.0251   0.0286   0.0350
 243 H   :1s    -0.2391   0.0637   0.0793   0.0038  -0.0062  -0.0110  -0.0048
 244 H   :1s    -0.1972   0.0316  -0.0016  -0.0901  -0.2312   0.1531   0.1733
 245 H   :1s    -0.0364  -0.0005   0.0078  -0.0729  -0.4976   0.9487  -0.2556
 249 H   :2px    0.0497  -0.0115  -0.0019   0.0051   0.0121   0.0160  -0.0614
 250 H   :2py    0.0433  -0.0041   0.0005   0.0064  -0.0035  -0.0188   0.0042
 251 H   :2pz   -0.0131  -0.0070   0.0029  -0.0053  -0.0040   0.0167   0.0505

    Orbital        32       33       34       35       36       37
   2 C   :1s     0.1283   0.0384  -0.0193   0.0639   0.0628   0.0003
   3 C   :1s     0.0900  -0.0168  -0.0372   0.1804   0.0882  -0.1667
   4 C   :1s    -4.8749   0.1247   0.0261  -0.0889  -5.2044   0.8480
   5 C   :2px   -0.0174   0.0120   0.0005   0.0347   0.0330  -0.0044
   6 C   :2py   -0.1283  -0.0636   0.0466  -0.0570  -0.0104  -0.0176
   7 C   :2pz    0.0389   0.0574   0.1020   0.0252  -0.0161  -0.1329
   8 C   :2px    0.0525  -0.0694   0.0476  -0.0701   0.1112  -0.0086
   9 C   :2py    0.0328  -0.1324   0.1760  -0.2819   0.0070  -0.0677
  10 C   :2pz    0.0486   0.0465   0.0592   0.1068   0.0010  -0.0966
  11 C   :2px   -0.4472   1.0107   0.1089  -0.8446   1.4098  -0.3016
  12 C   :2py   -1.8828  -0.0695   0.5312  -0.0828  -2.0347  -0.8731
  13 C   :2pz    0.2964   0.6682   1.1732  -0.1805  -0.3484  -3.1992
  19 C   :3d2-   0.0176  -0.0488   0.0101  -0.0127   0.0085   0.0263
  20 C   :3d1-  -0.0089   0.0045  -0.0318   0.0163   0.0025   0.1175
  21 C   :3d0   -0.0452   0.0197  -0.0075   0.0759  -0.0023  -0.0538
  22 C   :3d1+  -0.0052  -0.0373  -0.0416   0.0424  -0.0139   0.0495
  23 C   :3d2+   0.0152   0.0012  -0.0305  -0.0219  -0.1090  -0.0124
  25 C   :1s    -0.0026   0.1030   0.0020  -0.0704  -0.0571  -0.0420
  26 C   :1s    -0.0338  -0.0648  -0.0862   0.0801  -0.0857   0.0229
  27 C   :1s     1.6119   1.5028  -2.1250   4.4215   2.7431   0.2349
  28 C   :2px    0.0332   0.0600  -0.0425   0.0377   0.0245  -0.0143
  29 C   :2py    0.0358  -0.0019   0.0459  -0.0257   0.0726  -0.0182
  30 C   :2pz   -0.0028  -0.0767  -0.0051   0.0551   0.0278   0.0075
  31 C   :2px    0.0600  -0.3519   0.3368  -0.3919   0.1709  -0.0845
  32 C   :2py    0.0462  -0.0217  -0.1423   0.0816  -0.1080   0.0331
  33 C   :2pz   -0.0537  -0.1217   0.0609  -0.1017  -0.0658  -0.0387
  34 C   :2px   -1.2165  -0.2386   0.8621   1.4013  -0.4520   3.4815
  35 C   :2py   -1.0046   0.6355  -0.6315  -1.3819   0.2875   1.2552
  36 C   :2pz    0.1228  -1.4833  -1.1925   3.1462   1.7193   1.9451
  42 C   :3d2-   0.0306   0.0497  -0.0362  -0.0051  -0.0018   0.0719
  43 C   :3d1-   0.0419  -0.0122  -0.0545  -0.0098  -0.0536   0.0169
  44 C   :3d0    0.0282   0.0758  -0.0339  -0.0215  -0.0225  -0.0798
  45 C   :3d1+   0.0577  -0.0822   0.0616  -0.0443   0.0347   0.0152
  46 C   :3d2+   0.0261  -0.0167   0.0459  -0.0929   0.0112   0.0164
  48 C   :1s    -0.0626   0.0792  -0.0865   0.0549  -0.0710   0.0036
  49 C   :1s     0.0560   0.0281  -0.1135   0.0104  -0.1154   0.1344
  50 C   :1s     3.0278   0.0157   0.2380  -0.3368  -0.2836   2.7527
  51 C   :2px   -0.0276  -0.0152   0.0007   0.0270   0.0214   0.0127
  52 C   :2py   -0.0944   0.0463  -0.0136   0.0559  -0.0188  -0.0188
  53 C   :2pz    0.0436   0.0683  -0.0271  -0.1290  -0.0221   0.0432
  54 C   :2px   -0.0234   0.1328  -0.1028   0.1684   0.1128   0.2200
  55 C   :2py   -0.0199  -0.0125  -0.2437   0.2794  -0.1294   0.1434
  56 C   :2pz    0.0187   0.0561  -0.1345   0.0818  -0.0072   0.1341
  57 C   :2px   -0.9489  -0.1664  -0.7068   0.1274  -1.1880  -2.4477
  58 C   :2py   -0.8913   0.2310  -0.2205   1.8049   0.6837  -0.8074
  59 C   :2pz   -0.1449   1.2995   0.0059  -2.0046  -0.7766   0.9415
  65 C   :3d2-   0.0160  -0.0130  -0.0693  -0.0086  -0.0325  -0.0192
  66 C   :3d1-  -0.0118   0.0527   0.0070  -0.0984  -0.0078  -0.0269
  67 C   :3d0    0.0455   0.0282  -0.0433   0.0133  -0.0192   0.1331
  68 C   :3d1+  -0.0159  -0.0125   0.0402   0.0162  -0.0034   0.0714
  69 C   :3d2+  -0.0165   0.0217  -0.0326  -0.0271  -0.0494  -0.0716
  71 C   :1s     0.0747  -0.0654   0.0345  -0.0323   0.0093  -0.0242
  72 C   :1s     0.0754  -0.2254   0.0020   0.0508  -0.0659   0.2710
  73 C   :1s    -3.1783  -0.2068  -1.2833   1.4619  -3.3320  -2.2652
  74 C   :2px    0.0053   0.0375   0.0128   0.0300   0.0032  -0.0042
  75 C   :2py   -0.0211  -0.0829   0.0156  -0.0437  -0.0083  -0.0101
  76 C   :2pz    0.0122  -0.0142  -0.1278  -0.0627   0.0445  -0.0567
  77 C   :2px   -0.0341   0.1793  -0.0387   0.1227   0.1478   0.1923
  78 C   :2py   -0.1543  -0.1518  -0.0373   0.0192   0.0528  -0.0161
  79 C   :2pz    0.0093   0.0130  -0.1810  -0.0845   0.0923  -0.0062
  80 C   :2px   -1.1562   0.2573  -0.2172   0.0033  -1.5759  -0.2139
  81 C   :2py    0.4603  -0.6594   0.3344  -1.4471   0.4386  -0.4499
  82 C   :2pz   -0.0368  -0.4099  -1.3220  -0.1740   0.5750  -1.9596
  88 C   :3d2-   0.0634   0.0522  -0.0339  -0.0393  -0.0514  -0.0200
  89 C   :3d1-   0.0047   0.0110   0.0029  -0.0230   0.0249  -0.0501
  90 C   :3d0   -0.0355  -0.0289   0.0144   0.0305  -0.0280   0.0180
  91 C   :3d1+   0.0011   0.0226   0.0691   0.0070   0.0076   0.1066
  92 C   :3d2+  -0.0311  -0.0128  -0.0351   0.0539   0.0234   0.0069
  94 C   :1s    -0.0040   0.0611   0.0158  -0.0222   0.0137   0.0025
  95 C   :1s    -0.1148  -0.1436   0.0119   0.1655   0.2201   0.0253
  96 C   :1s     3.7810  -0.2421   1.8388  -1.6173   7.1345   0.5430
  97 C   :2px    0.0004   0.0248   0.0124  -0.0096   0.0351   0.0121
  98 C   :2py    0.0003   0.0254   0.0203  -0.0160   0.0340  -0.0073
  99 C   :2pz   -0.0694  -0.0054   0.0155   0.0419  -0.0195   0.0441
 100 C   :2px   -0.0305   0.0354  -0.0341  -0.0487   0.0261  -0.0138
 101 C   :2py   -0.1613  -0.0448  -0.0100   0.0154  -0.0196   0.0040
 102 C   :2pz   -0.0059  -0.0010   0.0167   0.0244  -0.0108   0.0537
 103 C   :2px    1.0737   0.3341   0.4879   0.4434   2.4225   0.4026
 104 C   :2py   -0.2938  -1.4028   0.4873  -0.6170  -0.8574   0.3961
 105 C   :2pz   -0.0848   0.0668  -0.2291   0.1812  -0.0152   0.9505
 111 C   :3d2-   0.0271  -0.0038  -0.0308   0.0164  -0.0672  -0.0587
 112 C   :3d1-  -0.0038   0.0180   0.0479  -0.0159  -0.0060  -0.0429
 113 C   :3d0   -0.0133  -0.0028  -0.0162  -0.0197  -0.0414   0.0050
 114 C   :3d1+  -0.0082  -0.0028  -0.0078  -0.0062   0.0044  -0.0587
 115 C   :3d2+   0.0444  -0.0194  -0.0260  -0.0042  -0.1183  -0.0008
 117 C   :1s    -0.0447  -0.0499   0.0351  -0.0280  -0.0154  -0.0073
 118 C   :1s    -0.0403  -0.0607  -0.0443   0.0119  -0.0239   0.0132
 119 C   :1s     0.7250  -1.1951   1.3319  -4.1765  -0.2652  -2.6068
 120 C   :2px   -0.0502  -0.0062   0.0104  -0.0272   0.0472  -0.0099
 121 C   :2py   -0.1083   0.0701   0.0482   0.0031   0.1371   0.0227
 122 C   :2pz    0.0369   0.0659   0.1000   0.0102  -0.0665   0.0640
 123 C   :2px   -0.0133  -0.3465   0.2637  -0.2789   0.1973  -0.0259
 124 C   :2py   -0.1482   0.1939   0.0029   0.0419   0.2327   0.0912
 125 C   :2pz    0.0109  -0.0689   0.1970  -0.1205  -0.0297   0.0782
 126 C   :2px   -0.5849  -0.1075  -0.2926   0.7140   0.7459   0.2272
 127 C   :2py   -0.2922   0.6430   0.6902  -0.1302   1.5158  -0.1264
 128 C   :2pz    0.0515   0.4194   1.0235   0.0667  -0.7046   0.8105
 134 C   :3d2-   0.0302  -0.0165   0.0256  -0.0436   0.0440   0.0351
 135 C   :3d1-   0.0179  -0.0032   0.0106  -0.0200   0.0207   0.0163
 136 C   :3d0    0.0068  -0.0379   0.0175  -0.0117   0.0148   0.0057
 137 C   :3d1+   0.0219   0.0630  -0.0225   0.0332  -0.0205   0.0115
 138 C   :3d2+   0.0027   0.0536  -0.0461   0.0137   0.0087   0.0075
 140 O   :1s     0.0673  -0.0184   0.0287  -0.0062   0.0983   0.0137
 141 O   :1s     0.0069   0.0167   0.0210  -0.0485   0.0860   0.0146
 142 O   :1s    -0.4360   0.2512  -0.1277  -0.1610  -0.3679   0.0396
 143 O   :2px   -0.0057   0.0162  -0.0036   0.0116  -0.0139  -0.0076
 144 O   :2py   -0.0130  -0.0440   0.0196  -0.0446  -0.0338  -0.0129
 145 O   :2pz    0.0497   0.0103  -0.0270  -0.0343   0.0259  -0.1218
 146 O   :2px   -0.0119   0.0165  -0.0020  -0.0194  -0.0126   0.0032
 147 O   :2py    0.0024   0.0105  -0.0032  -0.0090   0.0013  -0.0101
 148 O   :2pz    0.0049   0.0015  -0.0032  -0.0083   0.0035  -0.0375
 149 O   :2px   -0.2349   0.0382  -0.1067  -0.1380  -0.3733  -0.0635
 150 O   :2py    0.0233   0.2160  -0.0796   0.0464  -0.0193  -0.0602
 151 O   :2pz    0.0343  -0.0235   0.0497  -0.0540   0.0182  -0.1237
 160 O   :3d1+  -0.0008  -0.0005   0.0012  -0.0037   0.0006  -0.0117
 162 H   :1s     0.0124   0.0033   0.0008  -0.0095   0.0096  -0.0469
 163 H   :1s    -0.0086  -0.2178  -0.0011  -0.6516  -0.0528   0.4171
 164 H   :1s    -1.4442  -1.4029  -1.5554  -1.4804  -0.8795   4.9989
 168 H   :2px    0.0081   0.0436   0.0243  -0.0276   0.0554  -0.0555
 169 H   :2py    0.0054  -0.0257   0.0329  -0.0283   0.0008  -0.0418
 170 H   :2pz   -0.0073  -0.0129  -0.0663   0.0834   0.0329   0.0014
 171 H   :1s     0.0114  -0.0240   0.0104   0.0136   0.0197   0.0241
 172 H   :1s     0.0952  -0.1669   0.3534  -0.4811  -0.1477  -0.3917
 173 H   :1s    -1.8287   0.2150   2.3427  -1.3184  -2.2414  -4.2368
 177 H   :2px    0.0068  -0.0190   0.0220  -0.0110   0.0287   0.0555
 178 H   :2py    0.0765  -0.0426   0.0106  -0.0626   0.0134  -0.0070
 179 H   :2pz    0.0249  -0.0031  -0.0187  -0.0596  -0.0374   0.0172
 180 H   :1s     0.0246   0.0272   0.0326  -0.0195  -0.0154   0.0031
 181 H   :1s    -0.1732  -0.4489   0.3425  -0.2936  -0.0667   0.0849
 182 H   :1s     0.2681  -2.7520  -0.7722   3.8139   2.1493   2.1183
 186 H   :2px    0.0467   0.0110  -0.0088   0.0572  -0.0203   0.0367
 187 H   :2py    0.0447  -0.0104  -0.0245  -0.0174  -0.0179  -0.0408
 188 H   :2pz   -0.0364  -0.0219   0.0787  -0.1568  -0.0701  -0.0552
 189 H   :1s    -0.0423  -0.0252  -0.0231   0.0101  -0.0017   0.0169
[...]

 omega B, excitation energy, moment :    0.125856    0.251713    0.301844
 ELECTRIC           3           1


 Second order moment in a.u. for
 A operator label,  symmetry, spin:      XANGMOM     1    0
 B operator label,  symmetry, spin:      XDIPVEL     1    0
 Excited state no., symmetry, spin:             6    1    0

 omega B, excitation energy, moment :    0.125856    0.251713    1.797661
 MAGNETIC           1           1           6


 Second order moment in a.u. for
 A operator label,  symmetry, spin:      YANGMOM     1    0
 B operator label,  symmetry, spin:      XDIPVEL     1    0
 Excited state no., symmetry, spin:             6    1    0

 omega B, excitation energy, moment :    0.125856    0.251713   -2.366629
 MAGNETIC           2           1           6


 Second order moment in a.u. for
 A operator label,  symmetry, spin:      ZANGMOM     1    0
 B operator label,  symmetry, spin:      XDIPVEL     1    0
 Excited state no., symmetry, spin:             6    1    0

 omega B, excitation energy, moment :    0.125856    0.251713   -8.312194
 MAGNETIC           3           1           6


 Second order moment in a.u. for
 A operator label,  symmetry, spin:      XXROTSTR    1    0
 B operator label,  symmetry, spin:      XDIPVEL     1    0
 Excited state no., symmetry, spin:             6    1    0

 omega B, excitation energy, moment :    0.125856    0.251713  -17.692234
 QUADRUPOLE           1           1


 Second order moment in a.u. for
 A operator label,  symmetry, spin:      YYROTSTR    1    0
 B operator label,  symmetry, spin:      XDIPVEL     1    0
 Excited state no., symmetry, spin:             6    1    0

 omega B, excitation energy, moment :    0.125856    0.251713   -5.100148
 QUADRUPOLE           2           1


 Second order moment in a.u. for
 A operator label,  symmetry, spin:      ZZROTSTR    1    0
 B operator label,  symmetry, spin:      XDIPVEL     1    0
 Excited state no., symmetry, spin:             6    1    0

 omega B, excitation energy, moment :    0.125856    0.251713    0.215450
 QUADRUPOLE           3           1


 Second order moment in a.u. for
 A operator label,  symmetry, spin:      XYROTSTR    1    0
 B operator label,  symmetry, spin:      XDIPVEL     1    0
 Excited state no., symmetry, spin:             6    1    0

 omega B, excitation energy, moment :    0.125856    0.251713    8.981748
 QUADRUPOLE           4           1


 Second order moment in a.u. for
 A operator label,  symmetry, spin:      XZROTSTR    1    0
 B operator label,  symmetry, spin:      XDIPVEL     1    0
 Excited state no., symmetry, spin:             6    1    0

 omega B, excitation energy, moment :    0.125856    0.251713   -1.466530
 QUADRUPOLE           5           1


 Second order moment in a.u. for
 A operator label,  symmetry, spin:      YZROTSTR    1    0
 B operator label,  symmetry, spin:      XDIPVEL     1    0
 Excited state no., symmetry, spin:             6    1    0

 omega B, excitation energy, moment :    0.125856    0.251713   -0.175152
 QUADRUPOLE           6           1


 Second order moment in a.u. for
 A operator label,  symmetry, spin:      XDIPVEL     1    0
 B operator label,  symmetry, spin:      YDIPVEL     1    0
 Excited state no., symmetry, spin:             6    1    0

 omega B, excitation energy, moment :    0.125856    0.251713   -3.605134
 ELECTRIC           1           2


 Second order moment in a.u. for
 A operator label,  symmetry, spin:      YDIPVEL     1    0
 B operator label,  symmetry, spin:      YDIPVEL     1    0
 Excited state no., symmetry, spin:             6    1    0

 omega B, excitation energy, moment :    0.125856    0.251713   13.632574
 ELECTRIC           2           2


 Second order moment in a.u. for
 A operator label,  symmetry, spin:      ZDIPVEL     1    0
 B operator label,  symmetry, spin:      YDIPVEL     1    0
 Excited state no., symmetry, spin:             6    1    0

 omega B, excitation energy, moment :    0.125856    0.251713   -1.783212
 ELECTRIC           3           2


 Second order moment in a.u. for
 A operator label,  symmetry, spin:      XANGMOM     1    0
 B operator label,  symmetry, spin:      YDIPVEL     1    0
 Excited state no., symmetry, spin:             6    1    0

 omega B, excitation energy, moment :    0.125856    0.251713   -3.153211
 MAGNETIC           1           2           6


 Second order moment in a.u. for
 A operator label,  symmetry, spin:      YANGMOM     1    0
 B operator label,  symmetry, spin:      YDIPVEL     1    0
 Excited state no., symmetry, spin:             6    1    0

 omega B, excitation energy, moment :    0.125856    0.251713   -1.551731
 MAGNETIC           2           2           6


 Second order moment in a.u. for
 A operator label,  symmetry, spin:      ZANGMOM     1    0
 B operator label,  symmetry, spin:      YDIPVEL     1    0
 Excited state no., symmetry, spin:             6    1    0

 omega B, excitation energy, moment :    0.125856    0.251713    4.487016
 MAGNETIC           3           2           6


 Second order moment in a.u. for
 A operator label,  symmetry, spin:      XXROTSTR    1    0
 B operator label,  symmetry, spin:      YDIPVEL     1    0
 Excited state no., symmetry, spin:             6    1    0

 omega B, excitation energy, moment :    0.125856    0.251713    7.825340
 QUADRUPOLE           1           2


 Second order moment in a.u. for
 A operator label,  symmetry, spin:      YYROTSTR    1    0
 B operator label,  symmetry, spin:      YDIPVEL     1    0
 Excited state no., symmetry, spin:             6    1    0

 omega B, excitation energy, moment :    0.125856    0.251713   10.941171
 QUADRUPOLE           2           2


 Second order moment in a.u. for
 A operator label,  symmetry, spin:      ZZROTSTR    1    0
 B operator label,  symmetry, spin:      YDIPVEL     1    0
 Excited state no., symmetry, spin:             6    1    0

 omega B, excitation energy, moment :    0.125856    0.251713    0.629874
 QUADRUPOLE           3           2


 Second order moment in a.u. for
 A operator label,  symmetry, spin:      XYROTSTR    1    0
 B operator label,  symmetry, spin:      YDIPVEL     1    0
 Excited state no., symmetry, spin:             6    1    0

 omega B, excitation energy, moment :    0.125856    0.251713   -9.906534
 QUADRUPOLE           4           2


 Second order moment in a.u. for
 A operator label,  symmetry, spin:      XZROTSTR    1    0
 B operator label,  symmetry, spin:      YDIPVEL     1    0
 Excited state no., symmetry, spin:             6    1    0

 omega B, excitation energy, moment :    0.125856    0.251713    0.341059
 QUADRUPOLE           5           2


 Second order moment in a.u. for
 A operator label,  symmetry, spin:      YZROTSTR    1    0
 B operator label,  symmetry, spin:      YDIPVEL     1    0
 Excited state no., symmetry, spin:             6    1    0

 omega B, excitation energy, moment :    0.125856    0.251713    0.389977
 QUADRUPOLE           6           2


 Second order moment in a.u. for
 A operator label,  symmetry, spin:      XDIPVEL     1    0
 B operator label,  symmetry, spin:      ZDIPVEL     1    0
 Excited state no., symmetry, spin:             6    1    0

 omega B, excitation energy, moment :    0.125856    0.251713    0.301840
 ELECTRIC           1           3


 Second order moment in a.u. for
 A operator label,  symmetry, spin:      YDIPVEL     1    0
 B operator label,  symmetry, spin:      ZDIPVEL     1    0
 Excited state no., symmetry, spin:             6    1    0

 omega B, excitation energy, moment :    0.125856    0.251713   -1.783210
 ELECTRIC           2           3


 Second order moment in a.u. for
 A operator label,  symmetry, spin:      ZDIPVEL     1    0
 B operator label,  symmetry, spin:      ZDIPVEL     1    0
 Excited state no., symmetry, spin:             6    1    0

 omega B, excitation energy, moment :    0.125856    0.251713    4.718784
 ELECTRIC           3           3


 Second order moment in a.u. for
 A operator label,  symmetry, spin:      XANGMOM     1    0
 B operator label,  symmetry, spin:      ZDIPVEL     1    0
 Excited state no., symmetry, spin:             6    1    0

 omega B, excitation energy, moment :    0.125856    0.251713   -0.561158
 MAGNETIC           1           3           6


 Second order moment in a.u. for
 A operator label,  symmetry, spin:      YANGMOM     1    0
 B operator label,  symmetry, spin:      ZDIPVEL     1    0
 Excited state no., symmetry, spin:             6    1    0

 omega B, excitation energy, moment :    0.125856    0.251713   -0.725938
 MAGNETIC           2           3           6


 Second order moment in a.u. for
 A operator label,  symmetry, spin:      ZANGMOM     1    0
 B operator label,  symmetry, spin:      ZDIPVEL     1    0
 Excited state no., symmetry, spin:             6    1    0

 omega B, excitation energy, moment :    0.125856    0.251713   -0.862273
 MAGNETIC           3           3           6


 Second order moment in a.u. for
 A operator label,  symmetry, spin:      XXROTSTR    1    0
 B operator label,  symmetry, spin:      ZDIPVEL     1    0
 Excited state no., symmetry, spin:             6    1    0

 omega B, excitation energy, moment :    0.125856    0.251713   -1.210935
 QUADRUPOLE           1           3


 Second order moment in a.u. for
 A operator label,  symmetry, spin:      YYROTSTR    1    0
 B operator label,  symmetry, spin:      ZDIPVEL     1    0
 Excited state no., symmetry, spin:             6    1    0

 omega B, excitation energy, moment :    0.125856    0.251713    0.102558
 QUADRUPOLE           2           3


 Second order moment in a.u. for
 A operator label,  symmetry, spin:      ZZROTSTR    1    0
 B operator label,  symmetry, spin:      ZDIPVEL     1    0
 Excited state no., symmetry, spin:             6    1    0

 omega B, excitation energy, moment :    0.125856    0.251713    0.569920
 QUADRUPOLE           3           3


 Second order moment in a.u. for
 A operator label,  symmetry, spin:      XYROTSTR    1    0
 B operator label,  symmetry, spin:      ZDIPVEL     1    0
 Excited state no., symmetry, spin:             6    1    0

 omega B, excitation energy, moment :    0.125856    0.251713    0.614571
 QUADRUPOLE           4           3


 Second order moment in a.u. for
 A operator label,  symmetry, spin:      XZROTSTR    1    0
 B operator label,  symmetry, spin:      ZDIPVEL     1    0
 Excited state no., symmetry, spin:             6    1    0

 omega B, excitation energy, moment :    0.125856    0.251713   -0.771224
 QUADRUPOLE           5           3


 Second order moment in a.u. for
 A operator label,  symmetry, spin:      YZROTSTR    1    0
 B operator label,  symmetry, spin:      ZDIPVEL     1    0
 Excited state no., symmetry, spin:             6    1    0

 omega B, excitation energy, moment :    0.125856    0.251713   -0.088794
 QUADRUPOLE           6           3


       *******************************************************************
       ************ FINAL RESULTS FROM TWO-PHOTON CALCULATION ************
       *******************************************************************

 The two-photon absorption strength for an average molecular  
 orientation is computed according to formulas given by       
 P.R. Monson and W.M. McClain in J. Chem. Phys. 53:29, 1970   
 and W.M. McClain in J. Chem. Phys. 55:2789, 1971.            
 The absorption depends on the light polarization.            
 A monochromatic light source is assumed.                     

 All results are presented in atomic units, except the        
 excitation energy which is given in eV and two-photon cross  
 section which is given in GM. A FWHM of 0.1 eV is assumed.   

   Conversion factors:
      1 a.u. = 1.896788 10^{-50} cm^4 s/photon
      1 GM = 10^{-50} cm^4 s/photon


                  +--------------------------------+
                  | Two-photon transition tensor S |
                  +--------------------------------+
     ---------------------------------------------------------------------------------
     Sym  No  Energy        Sxx        Syy        Szz        Sxy        Sxz        Syz
     ---------------------------------------------------------------------------------
       1   1    4.20    -1.1     0.7     0.1     2.9     0.5     0.1
       1   2    5.63     0.7     0.0    -1.1     0.6    -0.3     1.1
       1   3    6.12    -1.9    -0.4    -0.7    -2.7     0.8     0.4
       1   4    6.15    -0.5    -0.3    -0.4    -0.1    -1.1     0.4
       1   5    6.28     0.7    -0.0     0.5     0.4    -0.3    -0.7
       1   6    6.85    -1.5     0.4     0.6     0.3    -0.8    -0.1


         +-------------------------------------------------+
         | Two-photon transition tensor P (velocity gauge) |
         +-------------------------------------------------+
     ---------------------------------------------------------------------------------
     Sym  No  Frequ.        Pxx        Pyy        Pzz        Pxy        Pxz        Pyz
     ---------------------------------------------------------------------------------
       1   1 0.07713     -0.919     -0.495      0.682     -0.650      3.320     -7.634
       1   2 0.10341    -15.375     -2.389     -1.404     -4.480      0.775     -0.257
       1   3 0.11239     -6.172     -3.544     -4.178      1.414     -8.943      8.308
       1   4 0.11303     33.841     21.263      6.744    -10.308     -0.450      0.266
       1   5 0.11533    -16.998     19.165      3.311    -10.845      0.792     -0.083
       1   6 0.12586     -1.946     13.633      4.719     -3.605      0.302     -1.783


        +--------------------------------------------------+
        | El. dip.-mag. dip. trans. tensor  M (vel. gauge) |
        +--------------------------------------------------+
     ------------------------------------------------------------------------------------------------------------------
     Sym  No  Energy        Mxx        Myy        Mzz        Mxy        Mxz        Myx        Myz        Mzx        Mzy
     ------------------------------------------------------------------------------------------------------------------
       1   1    4.20      3.522      4.321     -3.883      0.278     -0.158      0.052     -0.373      0.261     -1.150
       1   2    5.63     -0.701      2.467     -0.503      1.047     -3.140      2.746     -1.915     -4.058     -3.232
       1   3    6.12     -0.075     -7.513      9.124      2.091     -2.253     -1.593      6.882      0.809     -1.995
       1   4    6.15     -0.795      0.869      1.175      1.310     -1.395     -2.765     -4.135    -12.352     13.298
       1   5    6.28      1.783      2.946     -0.019      1.375      1.795      2.845     -1.834      7.331     15.226
       1   6    6.85      1.798     -1.552     -0.862     -3.153     -0.561     -2.367     -0.726     -8.312      4.487


        +--------------------------------------------------+
        | El. dip.-el. quad. trans. tensor  T (vel. gauge) |
        +--------------------------------------------------+
     ---------------------------------------------------------------------------------------------------------------------------------------------------------------------------------------------------------------------
     Sym  No  Energy       Txxx       Txxy       Txxz       Tyyx       Tyyy       Tyyz       Tzzx       Tzzy       Tzzz       Txyx       Txyy       Txyz       Txzx       Txzy       Txzz       Tyzx       Tyzy       Tyzz
     ---------------------------------------------------------------------------------------------------------------------------------------------------------------------------------------------------------------------
       1   1    4.20      1.110      0.031     -1.978     -0.074      0.463      1.289      0.021     -0.118      0.071      0.036      0.675      2.182     -1.053      2.935      0.467     -0.635      0.686      0.092
       1   2    5.63     -4.000     -1.142      0.824     -3.910      4.206     -0.214     -3.201      3.835     -1.084     -0.849     -3.482      0.772      0.726      0.575     -0.332      0.246      0.032      1.059
       1   3    6.12     -1.944     -0.602      0.335     -0.918      0.853     -1.297     -0.732      0.359     -0.692     -0.077     -0.126     -3.076     -1.947     -2.662      0.758     -0.111     -0.387      0.361
       1   4    6.15      5.202      5.067     -0.015      2.722      1.140     -0.438      0.750      2.427     -0.433      2.623     -4.162     -0.255     -0.478     -0.139     -1.136      0.078     -0.265      0.444
       1   5    6.28     -6.320     -3.908      0.133     -2.436     -6.202      0.268      0.478     -3.094      0.477     -7.293     -9.259      0.285      0.670      0.404     -0.289      0.162     -0.036     -0.715
       1   6    6.85    -17.692      7.825     -1.211     -5.100     10.941      0.103      0.215      0.630      0.570      8.982     -9.907      0.615     -1.467      0.341     -0.771     -0.175      0.390     -0.089
     ------------------------------------------------------------------------


                    Transition probabilities (a.u.)         
                   -----------------------------------------
                    D  =  2*Df + 4*Dg, Linear   polarization
                    D  = -2*Df + 6*Dg, Circular polarization
                    Df = sum(i,j){ S_ii * S_jj }/30         
                    Dg = sum(i,j){ S_ij * S_ij }/30         

                   Two-photon cross sections                
         ---------------------------------------------------
          sigma  =  8*pi^3*alpha^2*hbar/e^4 * E^2*D   (a.u.)

                             Polarization ratio      
                      -------------------------------
                          R  = (-Df+3*Dg)/(Df+2*Dg)  


                   +-----------------------------------+
                   |   Two-photon absorption summary   |
                   +-----------------------------------+
   ---------------------------------------------------------------------------------
   Sym  No  Energy  Polarization         Df         Dg          D      sigma       R
   ---------------------------------------------------------------------------------
     1   1    4.20   Linear       0.293E-02  0.642E+00  0.257E+01  0.332E-01    1.49
     1   1    4.20   Circular     0.293E-02  0.642E+00  0.385E+01  0.497E-01    1.49
     1   2    5.63   Linear       0.356E-02  0.161E+00  0.651E+00  0.151E-01    1.47
     1   2    5.63   Circular     0.356E-02  0.161E+00  0.959E+00  0.223E-01    1.47
     1   3    6.12   Linear       0.305E+00  0.667E+00  0.328E+01  0.898E-01    1.03
     1   3    6.12   Circular     0.305E+00  0.667E+00  0.339E+01  0.929E-01    1.03
     1   4    6.15   Linear       0.461E-01  0.117E+00  0.559E+00  0.155E-01    1.09
     1   4    6.15   Circular     0.461E-01  0.117E+00  0.607E+00  0.168E-01    1.09
     1   5    6.28   Linear       0.412E-01  0.731E-01  0.375E+00  0.108E-01    0.95
     1   5    6.28   Circular     0.412E-01  0.731E-01  0.356E+00  0.103E-01    0.95
     1   6    6.85   Linear       0.856E-02  0.136E+00  0.559E+00  0.192E-01    1.42
     1   6    6.85   Circular     0.856E-02  0.136E+00  0.796E+00  0.274E-01    1.42
   ---------------------------------------------------------------------------------

  Total CPU  time used in RESPONSE:  3 minutes 15 seconds
  Total wall time used in RESPONSE:  3 minutes 15 seconds


                   .-------------------------------------------.
                   | End of Dynamic Property Section (RESPONS) |
                   `-------------------------------------------'

  Total CPU  time used in DALTON:  3 minutes 28 seconds
  Total wall time used in DALTON:  3 minutes 28 seconds

 
     Date and time (Linux)  : Wed May 13 13:38:20 2020
     Host name              : s73p24.deic.sdu.dk                      
