 Entering Gaussian System, Link 0=g09
 Initial command:
 /opt/sys/apps/gaussian09/D.01/g09/l1.exe "/tmp/Gau-4051.inp" -scrdir="/tmp/"
 Entering Link 1 = /opt/sys/apps/gaussian09/D.01/g09/l1.exe PID=      4052.
  
 Copyright (c) 1988,1990,1992,1993,1995,1998,2003,2009,2013,
            Gaussian, Inc.  All Rights Reserved.
  
 This is part of the Gaussian(R) 09 program.  It is based on
 the Gaussian(R) 03 system (copyright 2003, Gaussian, Inc.),
 the Gaussian(R) 98 system (copyright 1998, Gaussian, Inc.),
 the Gaussian(R) 94 system (copyright 1995, Gaussian, Inc.),
 the Gaussian 92(TM) system (copyright 1992, Gaussian, Inc.),
 the Gaussian 90(TM) system (copyright 1990, Gaussian, Inc.),
 the Gaussian 88(TM) system (copyright 1988, Gaussian, Inc.),
 the Gaussian 86(TM) system (copyright 1986, Carnegie Mellon
 University), and the Gaussian 82(TM) system (copyright 1983,
 Carnegie Mellon University). Gaussian is a federally registered
 trademark of Gaussian, Inc.
  
 This software contains proprietary and confidential information,
 including trade secrets, belonging to Gaussian, Inc.
  
 This software is provided under written license and may be
 used, copied, transmitted, or stored only in accord with that
 written license.
  
 The following legend is applicable only to US Government
 contracts under FAR:
  
                    RESTRICTED RIGHTS LEGEND
  
 Use, reproduction and disclosure by the US Government is
 subject to restrictions as set forth in subparagraphs (a)
 and (c) of the Commercial Computer Software - Restricted
 Rights clause in FAR 52.227-19.
  
 Gaussian, Inc.
 340 Quinnipiac St., Bldg. 40, Wallingford CT 06492
  
  
 ---------------------------------------------------------------
 Warning -- This program may not be used in any manner that
 competes with the business of Gaussian, Inc. or will provide
 assistance to any competitor of Gaussian, Inc.  The licensee
 of this program is prohibited from giving any competitor of
 Gaussian, Inc. access to this program.  By using this program,
 the user acknowledges that Gaussian, Inc. is engaged in the
 business of creating and licensing software in the field of
 computational chemistry and represents and warrants to the
 licensee that it is not a competitor of Gaussian, Inc. and that
 it will not use this program in any manner prohibited above.
 ---------------------------------------------------------------
  

 Cite this work as:
 Gaussian 09, Revision D.01,
 M. J. Frisch, G. W. Trucks, H. B. Schlegel, G. E. Scuseria, 
 M. A. Robb, J. R. Cheeseman, G. Scalmani, V. Barone, B. Mennucci, 
 G. A. Petersson, H. Nakatsuji, M. Caricato, X. Li, H. P. Hratchian, 
 A. F. Izmaylov, J. Bloino, G. Zheng, J. L. Sonnenberg, M. Hada, 
 M. Ehara, K. Toyota, R. Fukuda, J. Hasegawa, M. Ishida, T. Nakajima, 
 Y. Honda, O. Kitao, H. Nakai, T. Vreven, J. A. Montgomery, Jr., 
 J. E. Peralta, F. Ogliaro, M. Bearpark, J. J. Heyd, E. Brothers, 
 K. N. Kudin, V. N. Staroverov, T. Keith, R. Kobayashi, J. Normand, 
 K. Raghavachari, A. Rendell, J. C. Burant, S. S. Iyengar, J. Tomasi, 
 M. Cossi, N. Rega, J. M. Millam, M. Klene, J. E. Knox, J. B. Cross, 
 V. Bakken, C. Adamo, J. Jaramillo, R. Gomperts, R. E. Stratmann, 
 O. Yazyev, A. J. Austin, R. Cammi, C. Pomelli, J. W. Ochterski, 
 R. L. Martin, K. Morokuma, V. G. Zakrzewski, G. A. Voth, 
 P. Salvador, J. J. Dannenberg, S. Dapprich, A. D. Daniels, 
 O. Farkas, J. B. Foresman, J. V. Ortiz, J. Cioslowski, 
 and D. J. Fox, Gaussian, Inc., Wallingford CT, 2013.
 
 ******************************************
 Gaussian 09:  ES64L-G09RevD.01 24-Apr-2013
                26-Dec-2019 
 ******************************************
 %NProcShared=24
 Will use up to   24 processors via shared memory.
 %mem=50Gb
 %OldChk=checkpoint_gs.chk
 %Chk=checkpoint_es.chk
 %Mem=50GB
 Copying data from "checkpoint_gs.chk" to current chk file "checkpoint_es.chk".
 ----------------------------------------------------------------------
 #p CAM-B3LYP/6-311++G** geom=allcheck nosym TD=(NSTATES=10,ROOT=1) den
 sity=current iop(3/119=0810000000) iop(3/120=0810000000)
 ----------------------------------------------------------------------
 1/29=7,30=1,38=1/1;
 2/12=2,15=1,40=1/2;
 3/5=4,6=6,7=1111,11=9,14=-4,16=1,25=1,30=1,71=1,74=-40,119=810000000,120=810000000/1,2,8,3;
 4//1;
 5/5=2,38=5/2;
 8/6=1,10=2,107=1,108=10/1;
 9/8=1,15=1,41=10,42=1,70=2/14;
 10/5=4,13=10,31=1/2;
 6/7=2,8=2,9=2,10=2,22=-1/1;
 99/5=1,9=1/99;
 Leave Link    1 at Thu Dec 26 15:05:31 2019, MaxMem=  6710886400 cpu:        22.7
 (Enter /opt/sys/apps/gaussian09/D.01/g09/l101.exe)
 Structure from the checkpoint file:  "checkpoint_es.chk"
 -------
 dianion
 -------
 Charge = -2 Multiplicity = 1
 Redundant internal coordinates found in file.
 O,0,2.7783509703,-0.5716058945,-4.7124299292
 O,0,2.7865170911,-0.5571460404,4.7077954058
 C,0,2.7154744679,-0.4455198136,-2.3396192324
 C,0,2.7194901527,-0.438520091,2.334711651
 C,0,0.6599382944,-0.3174288668,-3.6571378549
 C,0,0.6662574807,-0.3063706381,3.6553895593
 C,0,-0.0714571745,-0.2099981221,-2.5095865341
 C,0,-0.0671227628,-0.202389272,2.5087741726
 C,0,0.5337826566,-0.2232360046,-1.2159811947
 C,0,0.5358737989,-0.2195064909,1.2141883255
 C,0,1.9578869645,-0.3345039045,-1.1982367143
 C,0,1.9599260235,-0.3308791241,1.1943130639
 C,0,2.1131289313,-0.4525597347,-3.6502546675
 C,0,2.1194315052,-0.4414782464,3.6464063547
 O,0,2.6306403281,-0.3573818489,-0.0025061061
 C,0,-0.1740436473,-0.1438950601,-0.0004212225
 C,0,-1.6725133776,-0.2546810932,0.001078389
 C,0,-2.1805560243,-1.5651934429,0.0035340299
 C,0,-3.549222701,-1.8152613331,0.0054581016
 C,0,-4.4413745429,-0.7416919406,0.0049309866
 C,0,-3.9454162054,0.5574000684,0.0023971955
 C,0,-2.5698997678,0.8285042214,0.0004113481
 H,0,3.7927865216,-0.5374671482,-2.262096881
 H,0,3.7966634276,-0.5307162335,2.2555640766
 H,0,0.1771939577,-0.3002649797,-4.629584409
 H,0,0.1851728424,-0.2862775786,4.6286017301
 H,0,-1.149137582,-0.1026932545,-2.5613959557
 H,0,-1.1447146103,-0.0949623014,2.5621335712
 H,0,-1.4804416458,-2.3945208263,0.0039587264
 H,0,-3.9126493607,-2.8390044403,0.0073541487
 H,0,-5.5138194166,-0.9200326712,0.0065085485
 H,0,-4.6002799264,1.4216820848,0.0017765092
 C,0,-2.10789697,2.3143627655,-0.0025735534
 O,0,-3.0333640598,3.1629290067,-0.0029025916
 O,0,-0.8714123866,2.4847608626,-0.0041862917
 Recover connectivity data from disk.
 NAtoms=     35 NQM=       35 NQMF=       0 NMMI=      0 NMMIF=      0
                NMic=       0 NMicF=      0.
                    Isotopes and Nuclear Properties:
 (Nuclear quadrupole moments (NQMom) in fm**2, nuclear magnetic moments (NMagM)
  in nuclear magnetons)

  Atom         1           2           3           4           5           6           7           8           9          10
 IAtWgt=          16          16          12          12          12          12          12          12          12          12
 AtmWgt=  15.9949146  15.9949146  12.0000000  12.0000000  12.0000000  12.0000000  12.0000000  12.0000000  12.0000000  12.0000000
 NucSpn=           0           0           0           0           0           0           0           0           0           0
 AtZEff=  -5.6000000  -5.6000000  -3.6000000  -3.6000000  -3.6000000  -3.6000000  -3.6000000  -3.6000000  -3.6000000  -3.6000000
 NQMom=    0.0000000   0.0000000   0.0000000   0.0000000   0.0000000   0.0000000   0.0000000   0.0000000   0.0000000   0.0000000
 NMagM=    0.0000000   0.0000000   0.0000000   0.0000000   0.0000000   0.0000000   0.0000000   0.0000000   0.0000000   0.0000000
 AtZNuc=   8.0000000   8.0000000   6.0000000   6.0000000   6.0000000   6.0000000   6.0000000   6.0000000   6.0000000   6.0000000

  Atom        11          12          13          14          15          16          17          18          19          20
 IAtWgt=          12          12          12          12          16          12          12          12          12          12
 AtmWgt=  12.0000000  12.0000000  12.0000000  12.0000000  15.9949146  12.0000000  12.0000000  12.0000000  12.0000000  12.0000000
 NucSpn=           0           0           0           0           0           0           0           0           0           0
 AtZEff=  -3.6000000  -3.6000000  -3.6000000  -3.6000000  -5.6000000  -3.6000000  -3.6000000  -3.6000000  -3.6000000  -3.6000000
 NQMom=    0.0000000   0.0000000   0.0000000   0.0000000   0.0000000   0.0000000   0.0000000   0.0000000   0.0000000   0.0000000
 NMagM=    0.0000000   0.0000000   0.0000000   0.0000000   0.0000000   0.0000000   0.0000000   0.0000000   0.0000000   0.0000000
 AtZNuc=   6.0000000   6.0000000   6.0000000   6.0000000   8.0000000   6.0000000   6.0000000   6.0000000   6.0000000   6.0000000

  Atom        21          22          23          24          25          26          27          28          29          30
 IAtWgt=          12          12           1           1           1           1           1           1           1           1
 AtmWgt=  12.0000000  12.0000000   1.0078250   1.0078250   1.0078250   1.0078250   1.0078250   1.0078250   1.0078250   1.0078250
 NucSpn=           0           0           1           1           1           1           1           1           1           1
 AtZEff=  -3.6000000  -3.6000000  -1.0000000  -1.0000000  -1.0000000  -1.0000000  -1.0000000  -1.0000000  -1.0000000  -1.0000000
 NQMom=    0.0000000   0.0000000   0.0000000   0.0000000   0.0000000   0.0000000   0.0000000   0.0000000   0.0000000   0.0000000
 NMagM=    0.0000000   0.0000000   2.7928460   2.7928460   2.7928460   2.7928460   2.7928460   2.7928460   2.7928460   2.7928460
 AtZNuc=   6.0000000   6.0000000   1.0000000   1.0000000   1.0000000   1.0000000   1.0000000   1.0000000   1.0000000   1.0000000

  Atom        31          32          33          34          35
 IAtWgt=           1           1          12          16          16
 AtmWgt=   1.0078250   1.0078250  12.0000000  15.9949146  15.9949146
 NucSpn=           1           1           0           0           0
 AtZEff=  -1.0000000  -1.0000000  -3.6000000  -5.6000000  -5.6000000
 NQMom=    0.0000000   0.0000000   0.0000000   0.0000000   0.0000000
 NMagM=    2.7928460   2.7928460   0.0000000   0.0000000   0.0000000
 AtZNuc=   1.0000000   1.0000000   6.0000000   8.0000000   8.0000000
 Leave Link  101 at Thu Dec 26 15:05:31 2019, MaxMem=  6710886400 cpu:         6.9
 (Enter /opt/sys/apps/gaussian09/D.01/g09/l202.exe)
                          Input orientation:                          
 ---------------------------------------------------------------------
 Center     Atomic      Atomic             Coordinates (Angstroms)
 Number     Number       Type             X           Y           Z
 ---------------------------------------------------------------------
      1          8           0        2.778351   -0.571606   -4.712430
      2          8           0        2.786517   -0.557146    4.707795
      3          6           0        2.715474   -0.445520   -2.339619
      4          6           0        2.719490   -0.438520    2.334712
      5          6           0        0.659938   -0.317429   -3.657138
      6          6           0        0.666257   -0.306371    3.655390
      7          6           0       -0.071457   -0.209998   -2.509587
      8          6           0       -0.067123   -0.202389    2.508774
      9          6           0        0.533783   -0.223236   -1.215981
     10          6           0        0.535874   -0.219506    1.214188
     11          6           0        1.957887   -0.334504   -1.198237
     12          6           0        1.959926   -0.330879    1.194313
     13          6           0        2.113129   -0.452560   -3.650255
     14          6           0        2.119432   -0.441478    3.646406
     15          8           0        2.630640   -0.357382   -0.002506
     16          6           0       -0.174044   -0.143895   -0.000421
     17          6           0       -1.672513   -0.254681    0.001078
     18          6           0       -2.180556   -1.565193    0.003534
     19          6           0       -3.549223   -1.815261    0.005458
     20          6           0       -4.441375   -0.741692    0.004931
     21          6           0       -3.945416    0.557400    0.002397
     22          6           0       -2.569900    0.828504    0.000411
     23          1           0        3.792787   -0.537467   -2.262097
     24          1           0        3.796663   -0.530716    2.255564
     25          1           0        0.177194   -0.300265   -4.629584
     26          1           0        0.185173   -0.286278    4.628602
     27          1           0       -1.149138   -0.102693   -2.561396
     28          1           0       -1.144715   -0.094962    2.562134
     29          1           0       -1.480442   -2.394521    0.003959
     30          1           0       -3.912649   -2.839004    0.007354
     31          1           0       -5.513819   -0.920033    0.006509
     32          1           0       -4.600280    1.421682    0.001777
     33          6           0       -2.107897    2.314363   -0.002574
     34          8           0       -3.033364    3.162929   -0.002903
     35          8           0       -0.871412    2.484761   -0.004186
 ---------------------------------------------------------------------
                    Distance matrix (angstroms):
                    1          2          3          4          5
     1  O    0.000000
     2  O    9.420240   0.000000
     3  C    2.376990   7.048657   0.000000
     4  C    7.048644   2.376992   4.674338   0.000000
     5  C    2.380319   8.634345   2.444891   6.337087   0.000000
     6  C    8.634332   2.380325   6.337096   2.444876   7.312539
     7  C    3.620039   7.770401   2.802026   5.595430   1.365048
     8  C    7.770382   3.620056   5.595434   2.802011   6.209696
     9  C    4.169485   6.346451   2.464092   4.175055   2.446228
    10  C    6.346454   4.169495   4.175080   2.464086   4.873890
    11  C    3.616481   5.968033   1.374415   3.615603   2.780496
    12  C    5.968030   3.616491   3.615615   1.374421   5.022621
    13  C    1.258932   8.385785   1.442441   6.015621   1.459476
    14  C    8.385777   1.258940   6.015628   1.442436   7.448978
    15  O    4.717106   4.717112   2.340313   2.340313   4.152300
    16  C    5.576970   5.577006   3.729898   3.729904   3.754626
    17  C    6.490593   6.490580   4.976919   4.976880   4.338988
    18  C    6.915077   6.915060   5.542125   5.542042   4.798525
    19  C    7.990202   7.989770   6.828031   6.827708   5.777123
    20  C    8.625941   8.625161   7.536917   7.536430   6.293976
    21  C    8.289348   8.288662   7.131504   7.131096   5.947000
    22  C    7.264638   7.264344   5.918958   5.918780   5.012253
    23  H    2.652240   7.042185   1.084004   4.721483   3.436465
    24  H    7.042128   2.652269   4.721434   1.084005   6.696610
    25  H    2.616583   9.698516   3.421682   7.415106   1.085813
    26  H    9.698498   2.616607   7.415112   3.421677   8.299389
    27  H    4.502443   8.278711   3.886122   6.249074   2.125916
    28  H    8.278702   4.502451   6.249090   3.886107   6.479630
    29  H    6.610950   6.611275   5.186200   5.186307   4.722199
    30  H    8.496290   8.495873   7.427589   7.427260   6.379295
    31  H    9.547244   9.546170   8.570342   8.569701   7.204215
    32  H    8.980041   8.979262   7.904988   7.904554   6.639432
    33  C    7.374753   7.374851   6.028569   6.028676   5.286121
    34  O    8.360767   8.360661   7.178460   7.178454   6.253544
    35  O    6.695499   6.696000   5.187152   5.187542   4.851944
                    6          7          8          9         10
     6  C    0.000000
     7  C    6.209705   0.000000
     8  C    1.365059   5.018368   0.000000
     9  C    4.873881   1.428253   3.772973   0.000000
    10  C    2.446223   3.772988   1.428233   2.430173   0.000000
    11  C    5.022627   2.419375   4.226115   1.428555   2.802702
    12  C    2.780481   4.226110   2.419348   2.802676   1.428539
    13  C    7.448976   2.476364   6.538327   2.910775   5.119068
    14  C    1.459469   6.538335   2.476366   5.119055   2.910775
    15  O    4.152301   3.688971   3.688967   2.426382   2.426397
    16  C    3.754658   2.512131   2.512153   1.408864   1.408892
    17  C    4.338953   2.978056   2.978011   2.519914   2.519890
    18  C    4.798440   3.549736   3.549657   3.264307   3.264284
    19  C    5.776593   4.582267   4.581808   4.549439   4.549228
    20  C    6.293112   5.069682   5.068940   5.148943   5.148590
    21  C    5.946258   4.680440   4.679783   4.707129   4.706802
    22  C    5.011938   3.690636   3.690328   3.495513   3.495341
    23  H    6.696659   3.885983   6.145924   3.437180   4.774216
    24  H    3.436464   6.145883   3.885969   4.774156   3.437159
    25  H    8.299398   2.136438   7.143209   3.433042   5.855327
    26  H    1.085812   7.143207   2.136436   5.855310   3.433026
    27  H    6.479627   1.084248   5.185298   2.157983   4.136175
    28  H    2.125917   5.185312   1.084247   4.136177   2.157972
    29  H    4.722461   3.615977   3.616215   3.203097   3.203259
    30  H    6.378776   5.291637   5.291211   5.301844   5.301658
    31  H    7.203073   6.037731   6.036791   6.209146   6.208705
    32  H    6.638635   5.429508   5.428827   5.526960   5.526619
    33  C    5.286291   4.099341   4.099472   3.858787   3.858825
    34  O    6.253506   5.141303   5.141252   5.065788   5.065732
    35  O    4.852560   3.765459   3.765983   3.282723   3.282979
                   11         12         13         14         15
    11  C    0.000000
    12  C    2.392553   0.000000
    13  C    2.459762   4.848517   0.000000
    14  C    4.848516   2.459763   7.296672   0.000000
    15  O    1.372185   1.372201   3.685505   3.685508   0.000000
    16  C    2.452799   2.452790   4.318300   4.318326   2.812798
    17  C    3.824204   3.824164   5.263314   5.263284   4.304381
    18  C    4.481692   4.481638   5.746639   5.746577   4.960489
    19  C    5.828360   5.828163   6.876294   6.875858   6.349503
    20  C    6.524106   6.523806   7.510359   7.509637   7.082453
    21  C    6.089828   6.089562   7.146178   7.145554   6.639380
    22  C    4.825992   4.825857   6.074475   6.074205   5.334037
    23  H    2.130692   3.917758   2.180697   6.141640   2.547305
    24  H    3.917696   2.130679   6.141587   2.180714   2.547260
    25  H    3.866030   6.090719   2.174885   8.502015   5.237606
    26  H    6.090721   3.866016   8.502007   2.174891   5.237607
    27  H    3.400815   4.880952   3.456935   7.023897   4.571598
    28  H    4.880973   3.400792   7.023901   3.456931   4.571602
    29  H    4.184620   4.184697   5.480715   5.480957   4.588134
    30  H    6.495319   6.495129   7.441991   7.441561   6.998085
    31  H    7.590827   7.590445   8.471174   8.470206   8.163877
    32  H    6.894474   6.894194   7.868924   7.868241   7.446563
    33  C    4.997670   4.997702   6.227238   6.227361   5.439849
    34  O    6.210753   6.210714   7.270579   7.270523   6.668848
    35  O    4.168806   4.169017   5.552401   5.552914   4.510227
                   16         17         18         19         20
    16  C    0.000000
    17  C    1.502560   0.000000
    18  C    2.458902   1.405545   0.000000
    19  C    3.766342   2.440792   1.391325   0.000000
    20  C    4.309003   2.811367   2.406129   1.395882   0.000000
    21  C    3.836023   2.413621   2.760459   2.405515   1.390547
    22  C    2.585670   1.406625   2.425157   2.819325   2.442940
    23  H    4.583210   5.922114   6.470713   7.789715   8.542981
    24  H    4.583188   5.922060   6.470621   7.789421   8.542548
    25  H    4.645102   4.986635   5.350216   6.137183   6.557802
    26  H    4.645122   4.986579   5.350098   6.136527   6.556727
    27  H    2.740638   2.619790   3.127554   3.909225   4.222935
    28  H    2.740672   2.619749   3.127456   3.908667   4.222027
    29  H    2.602309   2.148445   1.085331   2.148348   3.391013
    30  H    4.608779   3.420084   2.150060   1.086339   2.162932
    31  H    5.395891   3.898507   3.395127   2.158952   1.087173
    32  H    4.694955   3.373724   3.844020   3.403313   2.169204
    33  C    3.127751   2.605678   3.880241   4.373932   3.845081
    34  O    4.371591   3.678585   4.804421   5.004854   4.150737
    35  O    2.719590   2.854178   4.256295   5.065664   4.811934
                   21         22         23         24         25
    21  C    0.000000
    22  C    1.401980   0.000000
    23  H    8.136735   6.889746   0.000000
    24  H    8.136372   6.889581   4.517668   0.000000
    25  H    6.259933   5.500682   4.328253   7.781962   0.000000
    26  H    6.259020   5.500301   7.782011   4.328270   9.258200
    27  H    3.850705   3.073849   4.970032   6.917171   2.464872
    28  H    3.849903   3.073494   6.917220   4.970018   7.315080
    29  H    3.845769   3.402179   6.032461   6.032523   5.348213
    30  H    3.396566   3.905591   8.355910   8.355606   6.683802
    31  H    2.154696   3.424045   9.586753   9.586183   7.366485
    32  H    1.084357   2.115255   8.911058   8.910672   6.873053
    33  C    2.542326   1.556031   6.932276   6.932351   5.785080
    34  O    2.760552   2.379989   8.086608   8.086592   6.611171
    35  O    3.628259   2.372355   5.998898   5.999209   5.500023
                   26         27         28         29         30
    26  H    0.000000
    27  H    7.315064   0.000000
    28  H    2.464851   5.123537   0.000000
    29  H    5.348484   3.455905   3.456145   0.000000
    30  H    6.683150   4.660780   4.660271   2.472491   0.000000
    31  H    7.365046   5.129583   5.128454   4.294445   2.499240
    32  H    6.872059   4.561135   4.560326   4.929178   4.315822
    33  C    5.785264   3.648144   3.648327   4.750508   5.460259
    34  O    6.611115   4.556368   4.556343   5.770343   6.066008
    35  O    5.500705   3.648475   3.649063   4.917151   6.131210
                   31         32         33         34         35
    31  H    0.000000
    32  H    2.513604   0.000000
    33  C    4.696989   2.647427   0.000000
    34  O    4.777376   2.342475   1.255609   0.000000
    35  O    5.757141   3.877451   1.248172   2.265822   0.000000
 Symmetry turned off by external request.
 Stoichiometry    C20H10O5(2-)
 Framework group  C1[X(C20H10O5)]
 Deg. of freedom    99
 Full point group                 C1      NOp   1
 Rotational constants (GHZ):      0.2322183      0.2226720      0.1391978
 Leave Link  202 at Thu Dec 26 15:05:31 2019, MaxMem=  6710886400 cpu:         0.2
 (Enter /opt/sys/apps/gaussian09/D.01/g09/l301.exe)
 Standard basis: 6-311++G(d,p) (5D, 7F)
 Ernie: Thresh=  0.10000D-02 Tol=  0.10000D-05 Strict=F.
   620 basis functions,   990 primitive gaussians,   645 cartesian basis functions
    86 alpha electrons       86 beta electrons
       nuclear repulsion energy      2021.6163335946 Hartrees.
 IExCor=20419 DFT=T Ex+Corr=CAM-B3LYP ExCW=0 ScaHFX=  1.000000
 ScaDFX=  1.000000  1.000000  1.000000  0.810000 ScalE2=  1.000000  1.000000
 IRadAn=      0 IRanWt=     -1 IRanGd=            0 ICorTp=0 IEmpDi=  4
  HFx wShort=  0.000000 wLong=  0.330000 cFull=  0.190000 cShort=  0.000000 cLong=  0.810000
  DFx wShort=  0.000000 wLong=  0.330000 cFull=  0.190000 cShort=  0.000000 cLong=  0.810000
 NAtoms=   35 NActive=   35 NUniq=   35 SFac= 1.00D+00 NAtFMM=   60 NAOKFM=F Big=F
 Integral buffers will be    131072 words long.
 Raffenetti 1 integral format.
 Two-electron integral symmetry is turned off.
 Leave Link  301 at Thu Dec 26 15:05:32 2019, MaxMem=  6710886400 cpu:         1.5
 (Enter /opt/sys/apps/gaussian09/D.01/g09/l302.exe)
 NPDir=0 NMtPBC=     1 NCelOv=     1 NCel=       1 NClECP=     1 NCelD=      1
         NCelK=      1 NCelE2=     1 NClLst=     1 CellRange=     0.0.
 One-electron integrals computed using PRISM.
 NBasis=   620 RedAO= T EigKep=  1.05D-06  NBF=   620
 NBsUse=   612 1.00D-06 EigRej=  5.71D-07 NBFU=   612
 Precomputing XC quadrature grid using
 IXCGrd= 4 IRadAn=           0 IRanWt=          -1 IRanGd=           0 AccXCQ= 0.00D+00.
 Generated NRdTot=       0 NPtTot=           0 NUsed=           0 NTot=          32
 NSgBfM=   637   637   637   637   637 MxSgAt=    35 MxSgA2=    35.
 Leave Link  302 at Thu Dec 26 15:05:33 2019, MaxMem=  6710886400 cpu:        25.0
 (Enter /opt/sys/apps/gaussian09/D.01/g09/l308.exe)
 Leave Link  308 at Thu Dec 26 15:05:34 2019, MaxMem=  6710886400 cpu:         2.8
 (Enter /opt/sys/apps/gaussian09/D.01/g09/l303.exe)
 DipDrv:  MaxL=1.
 Leave Link  303 at Thu Dec 26 15:05:35 2019, MaxMem=  6710886400 cpu:         2.4
 (Enter /opt/sys/apps/gaussian09/D.01/g09/l401.exe)
 ExpMin= 3.60D-02 ExpMax= 8.59D+03 ExpMxC= 1.30D+03 IAcc=3 IRadAn=         5 AccDes= 0.00D+00
 Harris functional with IExCor=20419 and IRadAn=       5 diagonalized for initial guess.
 HarFok:  IExCor=20419 AccDes= 0.00D+00 IRadAn=         5 IDoV= 1 UseB2=F ITyADJ=14
 ICtDFT=  3500011 ScaDFX=  1.000000  1.000000  1.000000  1.000000
 FoFCou: FMM=F IPFlag=           0 FMFlag=      100000 FMFlg1=           0
         NFxFlg=           0 DoJE=T BraDBF=F KetDBF=T FulRan=T
         wScrn=  0.000000 ICntrl=     500 IOpCl=  0 I1Cent=   200000004 NGrid=           0
         NMat0=    1 NMatS0=      1 NMatT0=    0 NMatD0=    1 NMtDS0=    0 NMtDT0=    0
 Symmetry not used in FoFCou.
 Harris En= -1091.11286108041    
 JPrj=0 DoOrth=F DoCkMO=F.
 Leave Link  401 at Thu Dec 26 15:05:39 2019, MaxMem=  6710886400 cpu:        71.7
 (Enter /opt/sys/apps/gaussian09/D.01/g09/l502.exe)
 Closed shell SCF:
 Using DIIS extrapolation, IDIIS=  1040.
 Two-electron integral symmetry not used.
 IVT=     1286045 IEndB=     1286045 NGot=  6710886400 MDV=  6710033666
 LenX=  6710033666 LenY=  6709616996
 Requested convergence on RMS density matrix=1.00D-08 within 128 cycles.
 Requested convergence on MAX density matrix=1.00D-06.
 Requested convergence on             energy=1.00D-06.
 No special actions if energy rises.
 Fock matrices will be formed incrementally for  20 cycles.

 Cycle   1  Pass 1  IDiag  1:
 FoFJK:  IHMeth= 1 ICntrl=       0 DoSepK=T KAlg= 0 I1Cent=   0 FoldK=F
 IRaf=         1 NMat=   1 IRICut=       1 DoRegI=T DoRafI=F ISym2E= 0.
 FoFCou: FMM=F IPFlag=           0 FMFlag=      100000 FMFlg1=           0
         NFxFlg=           0 DoJE=T BraDBF=F KetDBF=F FulRan=T
         wScrn=  0.000000 ICntrl=     500 IOpCl=  0 I1Cent=           0 NGrid=           0
         NMat0=    1 NMatS0=      1 NMatT0=    0 NMatD0=    1 NMtDS0=    0 NMtDT0=    0
 Symmetry not used in FoFCou.
 E= -1142.94326999732    
 DIIS: error= 8.82D-02 at cycle   1 NSaved=   1.
 NSaved= 1 IEnMin= 1 EnMin= -1142.94326999732     IErMin= 1 ErrMin= 8.82D-02
 ErrMax= 8.82D-02  0.00D+00 EMaxC= 1.00D-01 BMatC= 1.94D+00 BMatP= 1.94D+00
 IDIUse=3 WtCom= 1.18D-01 WtEn= 8.82D-01
 Coeff-Com:  0.100D+01
 Coeff-En:   0.100D+01
 Coeff:      0.100D+01
 Gap=     0.239 Goal=   None    Shift=    0.000
 GapD=    0.239 DampG=1.000 DampE=0.500 DampFc=0.5000 IDamp=-1.
 Damping current iteration by 5.00D-01
 RMSDP=4.81D-02 MaxDP=5.32D+00              OVMax= 1.92D-01

 Cycle   2  Pass 1  IDiag  1:
 RMSU=  2.06D-02    CP:  1.18D+00
 E= -1143.10045829945     Delta-E=       -0.157188302134 Rises=F Damp=T
 DIIS: error= 4.11D-02 at cycle   2 NSaved=   2.
 NSaved= 2 IEnMin= 2 EnMin= -1143.10045829945     IErMin= 2 ErrMin= 4.11D-02
 ErrMax= 4.11D-02  0.00D+00 EMaxC= 1.00D-01 BMatC= 3.95D-01 BMatP= 1.94D+00
 IDIUse=3 WtCom= 5.89D-01 WtEn= 4.11D-01
 Coeff-Com: -0.549D+00 0.155D+01
 Coeff-En:   0.000D+00 0.100D+01
 Coeff:     -0.323D+00 0.132D+01
 Gap=     0.263 Goal=   None    Shift=    0.000
 RMSDP=2.24D-02 MaxDP=2.35D+00 DE=-1.57D-01 OVMax= 1.72D-01

 Cycle   3  Pass 1  IDiag  1:
 RMSU=  1.34D-02    CP:  1.37D+00  1.57D+00
 E= -1143.22655676366     Delta-E=       -0.126098464209 Rises=F Damp=F
 DIIS: error= 1.29D-02 at cycle   3 NSaved=   3.
 NSaved= 3 IEnMin= 3 EnMin= -1143.22655676366     IErMin= 3 ErrMin= 1.29D-02
 ErrMax= 1.29D-02  0.00D+00 EMaxC= 1.00D-01 BMatC= 7.25D-02 BMatP= 3.95D-01
 IDIUse=3 WtCom= 8.71D-01 WtEn= 1.29D-01
 Coeff-Com: -0.299D+00 0.652D+00 0.648D+00
 Coeff-En:   0.000D+00 0.000D+00 0.100D+01
 Coeff:     -0.261D+00 0.568D+00 0.693D+00
 Gap=     0.216 Goal=   None    Shift=    0.000
 RMSDP=6.93D-03 MaxDP=7.03D-01 DE=-1.26D-01 OVMax= 5.14D-02

 Cycle   4  Pass 1  IDiag  1:
 RMSU=  2.18D-03    CP:  1.34D+00  1.84D+00  7.53D-01
 E= -1143.27663736386     Delta-E=       -0.050080600198 Rises=F Damp=F
 DIIS: error= 3.77D-03 at cycle   4 NSaved=   4.
 NSaved= 4 IEnMin= 4 EnMin= -1143.27663736386     IErMin= 4 ErrMin= 3.77D-03
 ErrMax= 3.77D-03  0.00D+00 EMaxC= 1.00D-01 BMatC= 4.80D-03 BMatP= 7.25D-02
 IDIUse=3 WtCom= 9.62D-01 WtEn= 3.77D-02
 Coeff-Com: -0.920D-01 0.198D+00 0.322D+00 0.572D+00
 Coeff-En:   0.000D+00 0.000D+00 0.000D+00 0.100D+01
 Coeff:     -0.885D-01 0.191D+00 0.310D+00 0.588D+00
 Gap=     0.216 Goal=   None    Shift=    0.000
 RMSDP=1.15D-03 MaxDP=6.95D-02 DE=-5.01D-02 OVMax= 7.96D-03

 Cycle   5  Pass 1  IDiag  1:
 RMSU=  5.23D-04    CP:  1.35D+00  1.84D+00  8.19D-01  9.11D-01
 E= -1143.27997792005     Delta-E=       -0.003340556184 Rises=F Damp=F
 DIIS: error= 4.12D-04 at cycle   5 NSaved=   5.
 NSaved= 5 IEnMin= 5 EnMin= -1143.27997792005     IErMin= 5 ErrMin= 4.12D-04
 ErrMax= 4.12D-04  0.00D+00 EMaxC= 1.00D-01 BMatC= 7.84D-05 BMatP= 4.80D-03
 IDIUse=3 WtCom= 9.96D-01 WtEn= 4.12D-03
 Coeff-Com:  0.270D-01-0.592D-01-0.387D-01 0.709D-01 0.100D+01
 Coeff-En:   0.000D+00 0.000D+00 0.000D+00 0.000D+00 0.100D+01
 Coeff:      0.269D-01-0.589D-01-0.386D-01 0.706D-01 0.100D+01
 Gap=     0.217 Goal=   None    Shift=    0.000
 RMSDP=8.72D-04 MaxDP=1.02D-01 DE=-3.34D-03 OVMax= 4.79D-03

 Cycle   6  Pass 1  IDiag  1:
 RMSU=  4.35D-04    CP:  1.35D+00  1.86D+00  8.57D-01  1.04D+00  1.34D+00
 E= -1143.28013894803     Delta-E=       -0.000161027982 Rises=F Damp=F
 DIIS: error= 3.60D-04 at cycle   6 NSaved=   6.
 NSaved= 6 IEnMin= 6 EnMin= -1143.28013894803     IErMin= 6 ErrMin= 3.60D-04
 ErrMax= 3.60D-04  0.00D+00 EMaxC= 1.00D-01 BMatC= 3.15D-05 BMatP= 7.84D-05
 IDIUse=3 WtCom= 9.96D-01 WtEn= 3.60D-03
 Coeff-Com:  0.210D-01-0.456D-01-0.489D-01-0.277D-01 0.483D+00 0.618D+00
 Coeff-En:   0.000D+00 0.000D+00 0.000D+00 0.000D+00 0.000D+00 0.100D+01
 Coeff:      0.209D-01-0.454D-01-0.487D-01-0.276D-01 0.481D+00 0.620D+00
 Gap=     0.217 Goal=   None    Shift=    0.000
 RMSDP=2.91D-04 MaxDP=3.45D-02 DE=-1.61D-04 OVMax= 2.13D-03

 Cycle   7  Pass 1  IDiag  1:
 RMSU=  1.20D-04    CP:  1.34D+00  1.87D+00  8.53D-01  1.10D+00  1.46D+00
                    CP:  8.74D-01
 E= -1143.28017499622     Delta-E=       -0.000036048192 Rises=F Damp=F
 DIIS: error= 1.13D-04 at cycle   7 NSaved=   7.
 NSaved= 7 IEnMin= 7 EnMin= -1143.28017499622     IErMin= 7 ErrMin= 1.13D-04
 ErrMax= 1.13D-04  0.00D+00 EMaxC= 1.00D-01 BMatC= 4.19D-06 BMatP= 3.15D-05
 IDIUse=3 WtCom= 9.99D-01 WtEn= 1.13D-03
 Coeff-Com:  0.428D-03-0.834D-03-0.695D-02-0.250D-01-0.549D-01 0.229D+00
 Coeff-Com:  0.858D+00
 Coeff-En:   0.000D+00 0.000D+00 0.000D+00 0.000D+00 0.000D+00 0.000D+00
 Coeff-En:   0.100D+01
 Coeff:      0.428D-03-0.833D-03-0.694D-02-0.250D-01-0.548D-01 0.229D+00
 Coeff:      0.858D+00
 Gap=     0.217 Goal=   None    Shift=    0.000
 RMSDP=1.52D-04 MaxDP=1.86D-02 DE=-3.60D-05 OVMax= 1.23D-03

 Cycle   8  Pass 1  IDiag  1:
 RMSU=  5.44D-05    CP:  1.34D+00  1.87D+00  8.55D-01  1.12D+00  1.53D+00
                    CP:  1.03D+00  9.19D-01
 E= -1143.28018289258     Delta-E=       -0.000007896360 Rises=F Damp=F
 DIIS: error= 5.41D-05 at cycle   8 NSaved=   8.
 NSaved= 8 IEnMin= 8 EnMin= -1143.28018289258     IErMin= 8 ErrMin= 5.41D-05
 ErrMax= 5.41D-05  0.00D+00 EMaxC= 1.00D-01 BMatC= 6.69D-07 BMatP= 4.19D-06
 IDIUse=1 WtCom= 1.00D+00 WtEn= 0.00D+00
 Coeff-Com: -0.355D-02 0.772D-02 0.563D-02-0.694D-02-0.105D+00 0.106D-01
 Coeff-Com:  0.324D+00 0.768D+00
 Coeff:     -0.355D-02 0.772D-02 0.563D-02-0.694D-02-0.105D+00 0.106D-01
 Coeff:      0.324D+00 0.768D+00
 Gap=     0.217 Goal=   None    Shift=    0.000
 RMSDP=6.42D-05 MaxDP=7.73D-03 DE=-7.90D-06 OVMax= 6.08D-04

 Cycle   9  Pass 1  IDiag  1:
 RMSU=  2.01D-05    CP:  1.34D+00  1.87D+00  8.57D-01  1.11D+00  1.57D+00
                    CP:  1.13D+00  8.90D-01  1.18D+00
 E= -1143.28018439582     Delta-E=       -0.000001503240 Rises=F Damp=F
 DIIS: error= 2.70D-05 at cycle   9 NSaved=   9.
 NSaved= 9 IEnMin= 9 EnMin= -1143.28018439582     IErMin= 9 ErrMin= 2.70D-05
 ErrMax= 2.70D-05  0.00D+00 EMaxC= 1.00D-01 BMatC= 1.06D-07 BMatP= 6.69D-07
 IDIUse=1 WtCom= 1.00D+00 WtEn= 0.00D+00
 Coeff-Com: -0.110D-02 0.238D-02 0.280D-02 0.125D-02-0.215D-01-0.263D-01
 Coeff-Com: -0.772D-01 0.216D+00 0.904D+00
 Coeff:     -0.110D-02 0.238D-02 0.280D-02 0.125D-02-0.215D-01-0.263D-01
 Coeff:     -0.772D-01 0.216D+00 0.904D+00
 Gap=     0.217 Goal=   None    Shift=    0.000
 RMSDP=2.32D-05 MaxDP=2.79D-03 DE=-1.50D-06 OVMax= 3.71D-04

 Cycle  10  Pass 1  IDiag  1:
 RMSU=  5.21D-06    CP:  1.34D+00  1.87D+00  8.58D-01  1.11D+00  1.57D+00
                    CP:  1.16D+00  8.55D-01  1.32D+00  1.16D+00
 E= -1143.28018470934     Delta-E=       -0.000000313525 Rises=F Damp=F
 DIIS: error= 1.23D-05 at cycle  10 NSaved=  10.
 NSaved=10 IEnMin=10 EnMin= -1143.28018470934     IErMin=10 ErrMin= 1.23D-05
 ErrMax= 1.23D-05  0.00D+00 EMaxC= 1.00D-01 BMatC= 4.17D-08 BMatP= 1.06D-07
 IDIUse=1 WtCom= 1.00D+00 WtEn= 0.00D+00
 Coeff-Com:  0.140D-03-0.315D-03 0.211D-03 0.154D-02 0.900D-02-0.117D-01
 Coeff-Com: -0.105D+00-0.441D-01 0.483D+00 0.667D+00
 Coeff:      0.140D-03-0.315D-03 0.211D-03 0.154D-02 0.900D-02-0.117D-01
 Coeff:     -0.105D+00-0.441D-01 0.483D+00 0.667D+00
 Gap=     0.217 Goal=   None    Shift=    0.000
 RMSDP=1.28D-05 MaxDP=1.68D-03 DE=-3.14D-07 OVMax= 1.15D-04

 Cycle  11  Pass 1  IDiag  1:
 RMSU=  3.13D-06    CP:  1.34D+00  1.87D+00  8.58D-01  1.11D+00  1.57D+00
                    CP:  1.17D+00  8.29D-01  1.39D+00  1.28D+00  1.34D+00
 E= -1143.28018477620     Delta-E=       -0.000000066861 Rises=F Damp=F
 DIIS: error= 5.48D-06 at cycle  11 NSaved=  11.
 NSaved=11 IEnMin=11 EnMin= -1143.28018477620     IErMin=11 ErrMin= 5.48D-06
 ErrMax= 5.48D-06  0.00D+00 EMaxC= 1.00D-01 BMatC= 3.78D-09 BMatP= 4.17D-08
 IDIUse=1 WtCom= 1.00D+00 WtEn= 0.00D+00
 Coeff-Com:  0.244D-03-0.527D-03-0.488D-03 0.200D-03 0.702D-02 0.295D-02
 Coeff-Com: -0.199D-01-0.632D-01-0.270D-02 0.193D+00 0.883D+00
 Coeff:      0.244D-03-0.527D-03-0.488D-03 0.200D-03 0.702D-02 0.295D-02
 Coeff:     -0.199D-01-0.632D-01-0.270D-02 0.193D+00 0.883D+00
 Gap=     0.217 Goal=   None    Shift=    0.000
 RMSDP=7.93D-06 MaxDP=7.97D-04 DE=-6.69D-08 OVMax= 7.07D-05

 Cycle  12  Pass 1  IDiag  1:
 RMSU=  1.34D-06    CP:  1.34D+00  1.87D+00  8.59D-01  1.11D+00  1.57D+00
                    CP:  1.18D+00  8.11D-01  1.40D+00  1.28D+00  1.68D+00
                    CP:  1.50D+00
 E= -1143.28018478868     Delta-E=       -0.000000012473 Rises=F Damp=F
 DIIS: error= 2.37D-06 at cycle  12 NSaved=  12.
 NSaved=12 IEnMin=12 EnMin= -1143.28018478868     IErMin=12 ErrMin= 2.37D-06
 ErrMax= 2.37D-06  0.00D+00 EMaxC= 1.00D-01 BMatC= 7.02D-10 BMatP= 3.78D-09
 IDIUse=1 WtCom= 1.00D+00 WtEn= 0.00D+00
 Coeff-Com:  0.308D-04-0.654D-04-0.148D-03-0.176D-03 0.313D-03 0.357D-02
 Coeff-Com:  0.141D-01-0.142D-01-0.864D-01-0.746D-01 0.252D+00 0.906D+00
 Coeff:      0.308D-04-0.654D-04-0.148D-03-0.176D-03 0.313D-03 0.357D-02
 Coeff:      0.141D-01-0.142D-01-0.864D-01-0.746D-01 0.252D+00 0.906D+00
 Gap=     0.217 Goal=   None    Shift=    0.000
 RMSDP=3.00D-06 MaxDP=3.10D-04 DE=-1.25D-08 OVMax= 3.12D-05

 Cycle  13  Pass 1  IDiag  1:
 RMSU=  5.80D-07    CP:  1.34D+00  1.87D+00  8.59D-01  1.11D+00  1.57D+00
                    CP:  1.18D+00  8.05D-01  1.40D+00  1.29D+00  1.83D+00
                    CP:  1.76D+00  1.31D+00
 E= -1143.28018479138     Delta-E=       -0.000000002698 Rises=F Damp=F
 DIIS: error= 1.01D-06 at cycle  13 NSaved=  13.
 NSaved=13 IEnMin=13 EnMin= -1143.28018479138     IErMin=13 ErrMin= 1.01D-06
 ErrMax= 1.01D-06  0.00D+00 EMaxC= 1.00D-01 BMatC= 1.64D-10 BMatP= 7.02D-10
 IDIUse=1 WtCom= 1.00D+00 WtEn= 0.00D+00
 Coeff-Com: -0.159D-04 0.348D-04 0.597D-05-0.114D-03-0.873D-03 0.102D-02
 Coeff-Com:  0.735D-02 0.365D-02-0.243D-01-0.546D-01-0.576D-01 0.332D+00
 Coeff-Com:  0.793D+00
 Coeff:     -0.159D-04 0.348D-04 0.597D-05-0.114D-03-0.873D-03 0.102D-02
 Coeff:      0.735D-02 0.365D-02-0.243D-01-0.546D-01-0.576D-01 0.332D+00
 Coeff:      0.793D+00
 Gap=     0.217 Goal=   None    Shift=    0.000
 RMSDP=1.72D-06 MaxDP=2.85D-04 DE=-2.70D-09 OVMax= 1.31D-05

 Cycle  14  Pass 1  IDiag  1:
 RMSU=  4.63D-07    CP:  1.34D+00  1.87D+00  8.59D-01  1.11D+00  1.57D+00
                    CP:  1.18D+00  8.01D-01  1.40D+00  1.29D+00  1.86D+00
                    CP:  1.84D+00  1.56D+00  1.02D+00
 E= -1143.28018479167     Delta-E=       -0.000000000296 Rises=F Damp=F
 DIIS: error= 6.52D-07 at cycle  14 NSaved=  14.
 NSaved=14 IEnMin=14 EnMin= -1143.28018479167     IErMin=14 ErrMin= 6.52D-07
 ErrMax= 6.52D-07  0.00D+00 EMaxC= 1.00D-01 BMatC= 4.15D-11 BMatP= 1.64D-10
 IDIUse=1 WtCom= 1.00D+00 WtEn= 0.00D+00
 Coeff-Com: -0.130D-04 0.283D-04 0.396D-04-0.106D-04-0.481D-03-0.319D-03
 Coeff-Com:  0.722D-04 0.441D-02 0.898D-02-0.922D-02-0.864D-01-0.724D-01
 Coeff-Com:  0.335D+00 0.820D+00
 Coeff:     -0.130D-04 0.283D-04 0.396D-04-0.106D-04-0.481D-03-0.319D-03
 Coeff:      0.722D-04 0.441D-02 0.898D-02-0.922D-02-0.864D-01-0.724D-01
 Coeff:      0.335D+00 0.820D+00
 Gap=     0.217 Goal=   None    Shift=    0.000
 RMSDP=1.07D-06 MaxDP=1.76D-04 DE=-2.96D-10 OVMax= 7.40D-06

 Cycle  15  Pass 1  IDiag  1:
 RMSU=  1.39D-07    CP:  1.34D+00  1.87D+00  8.59D-01  1.11D+00  1.57D+00
                    CP:  1.18D+00  7.99D-01  1.40D+00  1.29D+00  1.87D+00
                    CP:  1.91D+00  1.71D+00  1.25D+00  1.21D+00
 E= -1143.28018479191     Delta-E=       -0.000000000239 Rises=F Damp=F
 DIIS: error= 2.00D-07 at cycle  15 NSaved=  15.
 NSaved=15 IEnMin=15 EnMin= -1143.28018479191     IErMin=15 ErrMin= 2.00D-07
 ErrMax= 2.00D-07  0.00D+00 EMaxC= 1.00D-01 BMatC= 3.89D-12 BMatP= 4.15D-11
 IDIUse=1 WtCom= 1.00D+00 WtEn= 0.00D+00
 Coeff-Com:  0.213D-05-0.460D-05 0.375D-05 0.166D-04 0.714D-04-0.206D-03
 Coeff-Com: -0.116D-02-0.119D-03 0.534D-02 0.816D-02-0.269D-02-0.595D-01
 Coeff-Com: -0.904D-01 0.143D+00 0.997D+00
 Coeff:      0.213D-05-0.460D-05 0.375D-05 0.166D-04 0.714D-04-0.206D-03
 Coeff:     -0.116D-02-0.119D-03 0.534D-02 0.816D-02-0.269D-02-0.595D-01
 Coeff:     -0.904D-01 0.143D+00 0.997D+00
 Gap=     0.217 Goal=   None    Shift=    0.000
 RMSDP=4.15D-07 MaxDP=9.20D-05 DE=-2.39D-10 OVMax= 2.80D-06

 Cycle  16  Pass 1  IDiag  1:
 RMSU=  4.49D-08    CP:  1.34D+00  1.87D+00  8.59D-01  1.11D+00  1.57D+00
                    CP:  1.19D+00  7.98D-01  1.40D+00  1.30D+00  1.87D+00
                    CP:  1.92D+00  1.76D+00  1.29D+00  1.42D+00  1.35D+00
 E= -1143.28018479192     Delta-E=       -0.000000000010 Rises=F Damp=F
 DIIS: error= 6.45D-08 at cycle  16 NSaved=  16.
 NSaved=16 IEnMin=16 EnMin= -1143.28018479192     IErMin=16 ErrMin= 6.45D-08
 ErrMax= 6.45D-08  0.00D+00 EMaxC= 1.00D-01 BMatC= 7.51D-13 BMatP= 3.89D-12
 IDIUse=1 WtCom= 1.00D+00 WtEn= 0.00D+00
 Coeff-Com:  0.193D-05-0.416D-05-0.228D-05 0.921D-05 0.768D-04-0.300D-04
 Coeff-Com: -0.337D-03-0.581D-03 0.622D-03 0.431D-02 0.100D-01-0.113D-01
 Coeff-Com: -0.819D-01-0.567D-01 0.336D+00 0.800D+00
 Coeff:      0.193D-05-0.416D-05-0.228D-05 0.921D-05 0.768D-04-0.300D-04
 Coeff:     -0.337D-03-0.581D-03 0.622D-03 0.431D-02 0.100D-01-0.113D-01
 Coeff:     -0.819D-01-0.567D-01 0.336D+00 0.800D+00
 Gap=     0.217 Goal=   None    Shift=    0.000
 RMSDP=1.08D-07 MaxDP=2.61D-05 DE=-1.05D-11 OVMax= 8.65D-07

 Cycle  17  Pass 1  IDiag  1:
 RMSU=  1.88D-08    CP:  1.34D+00  1.87D+00  8.59D-01  1.11D+00  1.57D+00
                    CP:  1.19D+00  7.98D-01  1.40D+00  1.30D+00  1.86D+00
                    CP:  1.92D+00  1.76D+00  1.30D+00  1.48D+00  1.52D+00
                    CP:  1.15D+00
 E= -1143.28018479182     Delta-E=        0.000000000106 Rises=F Damp=F
 DIIS: error= 2.62D-08 at cycle  17 NSaved=  17.
 NSaved=17 IEnMin=16 EnMin= -1143.28018479192     IErMin=17 ErrMin= 2.62D-08
 ErrMax= 2.62D-08  0.00D+00 EMaxC= 1.00D-01 BMatC= 1.08D-13 BMatP= 7.51D-13
 IDIUse=1 WtCom= 1.00D+00 WtEn= 0.00D+00
 Coeff-Com:  0.124D-06-0.258D-06-0.110D-05-0.436D-07 0.423D-05 0.319D-04
 Coeff-Com:  0.143D-03-0.183D-03-0.949D-03-0.426D-03 0.315D-02 0.874D-02
 Coeff-Com: -0.479D-02-0.353D-01-0.115D+00 0.195D+00 0.950D+00
 Coeff:      0.124D-06-0.258D-06-0.110D-05-0.436D-07 0.423D-05 0.319D-04
 Coeff:      0.143D-03-0.183D-03-0.949D-03-0.426D-03 0.315D-02 0.874D-02
 Coeff:     -0.479D-02-0.353D-01-0.115D+00 0.195D+00 0.950D+00
 Gap=     0.217 Goal=   None    Shift=    0.000
 RMSDP=5.37D-08 MaxDP=1.33D-05 DE= 1.06D-10 OVMax= 3.68D-07

 Cycle  18  Pass 1  IDiag  1:
 RMSU=  8.40D-09    CP:  1.34D+00  1.87D+00  8.59D-01  1.11D+00  1.57D+00
                    CP:  1.19D+00  7.98D-01  1.40D+00  1.30D+00  1.86D+00
                    CP:  1.92D+00  1.77D+00  1.28D+00  1.51D+00  1.58D+00
                    CP:  1.42D+00  1.16D+00
 E= -1143.28018479198     Delta-E=       -0.000000000164 Rises=F Damp=F
 DIIS: error= 5.65D-09 at cycle  18 NSaved=  18.
 NSaved=18 IEnMin=18 EnMin= -1143.28018479198     IErMin=18 ErrMin= 5.65D-09
 ErrMax= 5.65D-09  0.00D+00 EMaxC= 1.00D-01 BMatC= 1.49D-14 BMatP= 1.08D-13
 IDIUse=1 WtCom= 1.00D+00 WtEn= 0.00D+00
 Coeff-Com:  0.285D-07-0.550D-07-0.371D-06-0.123D-05-0.449D-05 0.148D-04
 Coeff-Com:  0.667D-04-0.433D-05-0.298D-03-0.534D-03-0.186D-03 0.338D-02
 Coeff-Com:  0.706D-02 0.779D-03-0.705D-01-0.349D-01 0.233D+00 0.862D+00
 Coeff:      0.285D-07-0.550D-07-0.371D-06-0.123D-05-0.449D-05 0.148D-04
 Coeff:      0.667D-04-0.433D-05-0.298D-03-0.534D-03-0.186D-03 0.338D-02
 Coeff:      0.706D-02 0.779D-03-0.705D-01-0.349D-01 0.233D+00 0.862D+00
 Gap=     0.217 Goal=   None    Shift=    0.000
 RMSDP=9.16D-09 MaxDP=1.88D-06 DE=-1.64D-10 OVMax= 7.95D-08

 Cycle  19  Pass 1  IDiag  1:
 RMSU=  2.16D-09    CP:  1.34D+00  1.87D+00  8.59D-01  1.11D+00  1.57D+00
                    CP:  1.19D+00  7.98D-01  1.40D+00  1.30D+00  1.86D+00
                    CP:  1.92D+00  1.77D+00  1.28D+00  1.51D+00  1.59D+00
                    CP:  1.50D+00  1.25D+00  1.36D+00
 E= -1143.28018479150     Delta-E=        0.000000000479 Rises=F Damp=F
 DIIS: error= 2.92D-09 at cycle  19 NSaved=  19.
 NSaved=19 IEnMin=18 EnMin= -1143.28018479198     IErMin=19 ErrMin= 2.92D-09
 ErrMax= 2.92D-09  0.00D+00 EMaxC= 1.00D-01 BMatC= 2.80D-15 BMatP= 1.49D-14
 IDIUse=1 WtCom= 1.00D+00 WtEn= 0.00D+00
 Large coefficients: NSaved= 19 BigCof=    0.00 CofMax=   10.00 Det=-8.33D-15
 Inversion failed.  Reducing to 18 matrices.
 Coeff-Com:  0.117D-08 0.480D-07-0.459D-06-0.241D-05 0.905D-06 0.263D-05
 Coeff-Com:  0.268D-04 0.368D-04-0.125D-03-0.579D-03-0.125D-03 0.283D-02
 Coeff-Com:  0.697D-02-0.813D-02-0.431D-01-0.873D-01 0.278D+00 0.852D+00
 Coeff:      0.117D-08 0.480D-07-0.459D-06-0.241D-05 0.905D-06 0.263D-05
 Coeff:      0.268D-04 0.368D-04-0.125D-03-0.579D-03-0.125D-03 0.283D-02
 Coeff:      0.697D-02-0.813D-02-0.431D-01-0.873D-01 0.278D+00 0.852D+00
 Gap=     0.217 Goal=   None    Shift=    0.000
 RMSDP=5.95D-09 MaxDP=5.96D-07 DE= 4.79D-10 OVMax= 3.69D-08

 SCF Done:  E(RCAM-B3LYP) =  -1143.28018479     A.U. after   19 cycles
            NFock= 19  Conv=0.60D-08     -V/T= 2.0036
 KE= 1.139144039671D+03 PE=-6.754073369772D+03 EE= 2.450032811715D+03
 Leave Link  502 at Thu Dec 26 15:08:51 2019, MaxMem=  6710886400 cpu:      4604.5
 (Enter /opt/sys/apps/gaussian09/D.01/g09/l801.exe)
 DoSCS=F DFT=T ScalE2(SS,OS)=  1.000000  1.000000
 ExpMin= 3.60D-02 ExpMax= 8.59D+03 ExpMxC= 1.30D+03 IAcc=3 IRadAn=         5 AccDes= 0.00D+00
 HarFok:  IExCor=  205 AccDes= 0.00D+00 IRadAn=         5 IDoV=-2 UseB2=F ITyADJ=14
 ICtDFT= 12500011 ScaDFX=  1.000000  1.000000  1.000000  1.000000
 Largest valence mixing into a core orbital is  4.78D-05
 Largest core mixing into a valence orbital is  1.17D-05
 Range of M.O.s used for correlation:    26   612
 NBasis=   620 NAE=    86 NBE=    86 NFC=    25 NFV=     0
 NROrb=    587 NOA=    61 NOB=    61 NVA=   526 NVB=   526

 **** Warning!!: The largest alpha MO coefficient is  0.14468694D+03

 Leave Link  801 at Thu Dec 26 15:08:52 2019, MaxMem=  6710886400 cpu:         7.8
 (Enter /opt/sys/apps/gaussian09/D.01/g09/l914.exe)
 RHF ground state
 MDV=  6710886400 DFT=T DoStab=F Mixed=T DoRPA=T DoScal=F NonHer=T
 Would need an additional        106167300000 words for in-memory AO integral storage.
 Making orbital integer symmetry assigments:
    40 initial guesses have been made.
 Convergence on wavefunction:    0.000001000000000
 Davidson Disk Diagonalization:  ConvIn= 1.00D-06 SkipCon=T Conv= 1.00D-06.
 Max sub-space:   200 roots to seek:    40 dimension of matrix:        64172
 Iteration     1 Dimension    40 NMult     0 NNew     40
 CISAX will form    40 AO SS matrices at one time.
 NMat=    40 NSing=    40 JSym2X= 0.
 FoFJK:  IHMeth= 1 ICntrl=       0 DoSepK=T KAlg= 0 I1Cent=   0 FoldK=F
 IRaf=         1 NMat=  80 IRICut=       1 DoRegI=T DoRafI=F ISym2E= 0.
 FoFCou: FMM=F IPFlag=           0 FMFlag=      100000 FMFlg1=           0
         NFxFlg=           0 DoJE=F BraDBF=F KetDBF=F FulRan=T
         wScrn=  0.000000 ICntrl=     500 IOpCl=  0 I1Cent=           0 NGrid=           0
         NMat0=   40 NMatS0=     40 NMatT0=    0 NMatD0=   40 NMtDS0=    0 NMtDT0=    0
 Symmetry not used in FoFCou.
 New state      1 was old state      3
 New state      2 was old state      1
 New state      3 was old state      4
 New state      4 was old state      5
 New state      5 was old state      2
 New state      7 was old state     10
 New state      8 was old state     29
 New state      9 was old state      7
 New state     10 was old state     22
 Excitation Energies [eV] at current iteration:
 Root      1 :     3.937782961986636
 Root      2 :     4.107139909660345
 Root      3 :     4.439982900669296
 Root      4 :     4.562383194303377
 Root      5 :     4.646349873379036
 Root      6 :     4.700231979271639
 Root      7 :     5.001914923276977
 Root      8 :     5.015239384241072
 Root      9 :     5.102421461806917
 Root     10 :     5.119734477291992
 Root     11 :     5.190535750555524
 Root     12 :     5.278474856451838
 Root     13 :     5.539250822705222
 Root     14 :     5.625363450365101
 Root     15 :     5.633648530050227
 Root     16 :     5.715619442529440
 Root     17 :     5.744553196220481
 Root     18 :     5.772063181870726
 Root     19 :     5.904823156047170
 Root     20 :     5.920609511782904
 Root     21 :     5.926531892787786
 Root     22 :     5.937378178430679
 Root     23 :     6.039837424384322
 Root     24 :     6.080961244426194
 Root     25 :     6.328231070530511
 Root     26 :     6.332020800984089
 Root     27 :     6.403009971388077
 Root     28 :     6.436632403049608
 Root     29 :     6.516331650101300
 Root     30 :     6.554781696327718
 Root     31 :     6.560372872695408
 Root     32 :     6.667567581765919
 Root     33 :     6.673621096712493
 Root     34 :     6.727078632508033
 Root     35 :     6.756306651392789
 Root     36 :     6.775532430175060
 Root     37 :     6.891270342200570
 Root     38 :     6.968944813734466
 Root     39 :     7.158368126025322
 Root     40 :     7.272555469759977
 Iteration     2 Dimension    60 NMult    40 NNew     20
 CISAX will form    20 AO SS matrices at one time.
 NMat=    20 NSing=    20 JSym2X= 0.
 Root      1 not converged, maximum delta is    0.093604152924565
 Root      2 not converged, maximum delta is    0.123437533197706
 Root      3 not converged, maximum delta is    0.154289578379634
 Root      4 not converged, maximum delta is    0.112756630376375
 New state      5 was old state      8
 Root      5 not converged, maximum delta is    0.351397405769987
 Root      6 not converged, maximum delta is    0.120276753780378
 New state      7 was old state      5
 Root      7 not converged, maximum delta is    0.109573304636961
 New state      8 was old state     10
 Root      8 not converged, maximum delta is    0.409094240260206
 New state      9 was old state      7
 Root      9 not converged, maximum delta is    0.352626041587073
 New state     10 was old state      9
 Root     10 not converged, maximum delta is    0.100690583098630
 Excitation Energies [eV] at current iteration:
 Root      1 :     3.203973255701296   Change is   -0.733809706285341
 Root      2 :     4.007344959995329   Change is   -0.099794949665016
 Root      3 :     4.274131248838621   Change is   -0.165851651830676
 Root      4 :     4.358901279108993   Change is   -0.203481915194385
 Root      5 :     4.456460193447831   Change is   -0.558779190793241
 Root      6 :     4.528209275052085   Change is   -0.172022704219555
 Root      7 :     4.568632895668363   Change is   -0.077716977710674
 Root      8 :     4.686503438410962   Change is   -0.433231038881031
 Root      9 :     4.790985880991558   Change is   -0.210929042285419
 Root     10 :     4.965450190803043   Change is   -0.136971271003873
 Iteration     3 Dimension    80 NMult    60 NNew     20
 CISAX will form    20 AO SS matrices at one time.
 NMat=    20 NSing=    20 JSym2X= 0.
 Root      1 not converged, maximum delta is    0.020895178347670
 Root      2 not converged, maximum delta is    0.015179253226748
 Root      3 not converged, maximum delta is    0.018772354142649
 Root      4 not converged, maximum delta is    0.018563484011415
 Root      5 not converged, maximum delta is    0.044994188000274
 Root      6 not converged, maximum delta is    0.015693219546268
 Root      7 not converged, maximum delta is    0.019748302006318
 Root      8 not converged, maximum delta is    0.063594711184380
 Root      9 not converged, maximum delta is    0.016324575051635
 Root     10 not converged, maximum delta is    0.041747355483172
 Excitation Energies [eV] at current iteration:
 Root      1 :     3.135153393457178   Change is   -0.068819862244117
 Root      2 :     3.997508652637407   Change is   -0.009836307357923
 Root      3 :     4.259564589604843   Change is   -0.014566659233777
 Root      4 :     4.341672302681392   Change is   -0.017228976427601
 Root      5 :     4.388345858072242   Change is   -0.068114335375589
 Root      6 :     4.514104717330984   Change is   -0.014104557721101
 Root      7 :     4.558874160134376   Change is   -0.009758735533986
 Root      8 :     4.608774509032698   Change is   -0.077728929378263
 Root      9 :     4.774767184218388   Change is   -0.016218696773170
 Root     10 :     4.938686085815190   Change is   -0.026764104987854
 Iteration     4 Dimension   100 NMult    80 NNew     20
 CISAX will form    20 AO SS matrices at one time.
 NMat=    20 NSing=    20 JSym2X= 0.
 Root      1 not converged, maximum delta is    0.008110564963037
 Root      2 not converged, maximum delta is    0.002382039286339
 Root      3 not converged, maximum delta is    0.004961294968789
 New state      4 was old state      5
 Root      4 not converged, maximum delta is    0.155941505012089
 New state      5 was old state      4
 Root      5 not converged, maximum delta is    0.110284090139841
 Root      6 not converged, maximum delta is    0.003432912996469
 New state      7 was old state      8
 Root      7 not converged, maximum delta is    0.158124491918587
 New state      8 was old state      7
 Root      8 not converged, maximum delta is    0.003126485032074
 Root      9 not converged, maximum delta is    0.029987298890709
 Root     10 not converged, maximum delta is    0.012202423139436
 Excitation Energies [eV] at current iteration:
 Root      1 :     3.124803357327816   Change is   -0.010350036129362
 Root      2 :     3.996989713427024   Change is   -0.000518939210383
 Root      3 :     4.258579771724894   Change is   -0.000984817879949
 Root      4 :     4.328080045891769   Change is   -0.060265812180472
 Root      5 :     4.341031346418731   Change is   -0.000640956262661
 Root      6 :     4.513071805560873   Change is   -0.001032911770111
 Root      7 :     4.552639929141115   Change is   -0.056134579891583
 Root      8 :     4.557919124763438   Change is   -0.000955035370939
 Root      9 :     4.772104831745273   Change is   -0.002662352473115
 Root     10 :     4.934716360194805   Change is   -0.003969725620385
 Iteration     5 Dimension   120 NMult   100 NNew     20
 CISAX will form    20 AO SS matrices at one time.
 NMat=    20 NSing=    20 JSym2X= 0.
 Root      1 not converged, maximum delta is    0.003111888552520
 Root      2 not converged, maximum delta is    0.000815562319930
 Root      3 not converged, maximum delta is    0.001972427478581
 Root      4 not converged, maximum delta is    0.077863972115394
 Root      5 not converged, maximum delta is    0.062043597736619
 Root      6 not converged, maximum delta is    0.004029086008909
 Root      7 not converged, maximum delta is    0.091980862284959
 Root      8 not converged, maximum delta is    0.002257273699946
 Root      9 not converged, maximum delta is    0.046199920964474
 No map to state     10
 Excitation Energies [eV] at current iteration:
 Root      1 :     3.123286935701542   Change is   -0.001516421626274
 Root      2 :     3.996933226076796   Change is   -0.000056487350227
 Root      3 :     4.258444993861931   Change is   -0.000134777862963
 Root      4 :     4.303695006361525   Change is   -0.024385039530245
 Root      5 :     4.340551837424067   Change is   -0.000479508994664
 Root      6 :     4.512799714450201   Change is   -0.000272091110673
 Root      7 :     4.531347906000947   Change is   -0.021292023140167
 Root      8 :     4.557782984972630   Change is   -0.000136139790808
 Root      9 :     4.770130960698581   Change is   -0.001973871046692
 Root     10 :     4.865247639672140
 Iteration     6 Dimension   140 NMult   120 NNew     20
 CISAX will form    20 AO SS matrices at one time.
 NMat=    20 NSing=    20 JSym2X= 0.
 Root      1 not converged, maximum delta is    0.000892717497516
 Root      2 not converged, maximum delta is    0.000289981978521
 Root      3 not converged, maximum delta is    0.002829728371168
 Root      4 not converged, maximum delta is    0.018467118305390
 Root      5 not converged, maximum delta is    0.004317172787118
 Root      6 not converged, maximum delta is    0.016242656150927
 Root      7 not converged, maximum delta is    0.023167318142778
 Root      8 not converged, maximum delta is    0.010124750134807
 No map to state      9
 New state     10 was old state      9
 Root     10 not converged, maximum delta is    0.059779059090825
 Excitation Energies [eV] at current iteration:
 Root      1 :     3.123197493126910   Change is   -0.000089442574632
 Root      2 :     3.996928303788462   Change is   -0.000004922288335
 Root      3 :     4.258405762852653   Change is   -0.000039231009278
 Root      4 :     4.298536852108183   Change is   -0.005158154253342
 Root      5 :     4.340501451285813   Change is   -0.000050386138254
 Root      6 :     4.512432722085738   Change is   -0.000366992364462
 Root      7 :     4.526455511633281   Change is   -0.004892394367667
 Root      8 :     4.557673697705152   Change is   -0.000109287267479
 Root      9 :     4.754502048022593
 Root     10 :     4.766952789349626   Change is   -0.003178171348954
 Iteration     7 Dimension   160 NMult   140 NNew     20
 CISAX will form    20 AO SS matrices at one time.
 NMat=    20 NSing=    20 JSym2X= 0.
 Root      1 not converged, maximum delta is    0.000185048533846
 Root      2 not converged, maximum delta is    0.000082502931321
 Root      3 not converged, maximum delta is    0.001635473938296
 Root      4 not converged, maximum delta is    0.004959063552372
 Root      5 not converged, maximum delta is    0.001977591196660
 Root      6 not converged, maximum delta is    0.040237870278864
 Root      7 not converged, maximum delta is    0.004194849061131
 Root      8 not converged, maximum delta is    0.071479184368042
 Root      9 not converged, maximum delta is    0.124929407207007
 Root     10 not converged, maximum delta is    0.469052413536625
 Excitation Energies [eV] at current iteration:
 Root      1 :     3.123191296916649   Change is   -0.000006196210261
 Root      2 :     3.996927784386929   Change is   -0.000000519401532
 Root      3 :     4.258393818814529   Change is   -0.000011944038124
 Root      4 :     4.297729715570028   Change is   -0.000807136538155
 Root      5 :     4.340487460664039   Change is   -0.000013990621774
 Root      6 :     4.511862992196111   Change is   -0.000569729889627
 Root      7 :     4.525536973333129   Change is   -0.000918538300152
 Root      8 :     4.557090653580987   Change is   -0.000583044124165
 Root      9 :     4.587874790131615   Change is   -0.166627257890978
 Root     10 :     4.670398649324315   Change is   -0.096554140025312
 Iteration     8 Dimension   180 NMult   160 NNew     20
 CISAX will form    20 AO SS matrices at one time.
 NMat=    20 NSing=    20 JSym2X= 0.
 Root      1 not converged, maximum delta is    0.000035453143105
 Root      2 not converged, maximum delta is    0.000083451540308
 Root      3 not converged, maximum delta is    0.000458387445646
 Root      4 not converged, maximum delta is    0.001335192913364
 Root      5 not converged, maximum delta is    0.000499425019888
 Root      6 not converged, maximum delta is    0.015363332281494
 Root      7 not converged, maximum delta is    0.001683968586246
 Root      8 not converged, maximum delta is    0.094349349831923
 Root      9 not converged, maximum delta is    0.068492257298934
 Root     10 not converged, maximum delta is    0.024650102009123
 Excitation Energies [eV] at current iteration:
 Root      1 :     3.123190973518467   Change is   -0.000000323398182
 Root      2 :     3.996927656560477   Change is   -0.000000127826452
 Root      3 :     4.258391065456915   Change is   -0.000002753357614
 Root      4 :     4.297599367569537   Change is   -0.000130348000492
 Root      5 :     4.340484485288599   Change is   -0.000002975375440
 Root      6 :     4.511669972397135   Change is   -0.000193019798976
 Root      7 :     4.525383702266959   Change is   -0.000153271066170
 Root      8 :     4.556269649825076   Change is   -0.000821003755911
 Root      9 :     4.571284560329995   Change is   -0.016590229801619
 Root     10 :     4.631942398554827   Change is   -0.038456250769488
 Iteration     9 Dimension   200 NMult   180 NNew     20
 CISAX will form    20 AO SS matrices at one time.
 NMat=    20 NSing=    20 JSym2X= 0.
 Root      1 not converged, maximum delta is    0.000010651080878
 Root      2 not converged, maximum delta is    0.000031287377829
 Root      3 not converged, maximum delta is    0.000260563595015
 Root      4 not converged, maximum delta is    0.000427647527624
 Root      5 not converged, maximum delta is    0.000087539454889
 Root      6 not converged, maximum delta is    0.002629039532489
 Root      7 not converged, maximum delta is    0.000913203039609
 Root      8 not converged, maximum delta is    0.027397382532167
 Root      9 not converged, maximum delta is    0.020225316293577
 Root     10 not converged, maximum delta is    0.017772628627879
 Excitation Energies [eV] at current iteration:
 Root      1 :     3.123190954052140   Change is   -0.000000019466327
 Root      2 :     3.996927623906536   Change is   -0.000000032653941
 Root      3 :     4.258390079414216   Change is   -0.000000986042699
 Root      4 :     4.297579007700961   Change is   -0.000020359868576
 Root      5 :     4.340484006551770   Change is   -0.000000478736829
 Root      6 :     4.511637557281960   Change is   -0.000032415115174
 Root      7 :     4.525352047772368   Change is   -0.000031654494591
 Root      8 :     4.556007719243141   Change is   -0.000261930581935
 Root      9 :     4.569238003985246   Change is   -0.002046556344749
 Root     10 :     4.622926784133067   Change is   -0.009015614421760
 Davidson failed to converge within maximum sub-space dimensions.
  Restart with updated initial guess:
 Iteration     1 Dimension    40 NMult   200 NNew     40
 CISAX will form    40 AO SS matrices at one time.
 NMat=    40 NSing=    40 JSym2X= 0.
 Excitation Energies [eV] at current iteration:
 Root      1 :     3.123190959521830
 Root      2 :     3.996927621418465
 Root      3 :     4.258389976924722
 Root      4 :     4.297576476667287
 Root      5 :     4.340483920577833
 Root      6 :     4.511634452067513
 Root      7 :     4.525346778122065
 Root      8 :     4.555981470895409
 Root      9 :     4.569062557361757
 Root     10 :     4.620739481750781
 Iteration     2 Dimension    60 NMult   240 NNew     20
 CISAX will form    20 AO SS matrices at one time.
 NMat=    20 NSing=    20 JSym2X= 0.
 Root      1 not converged, maximum delta is    0.000004777383800
 Root      2 not converged, maximum delta is    0.000005944694958
 Root      3 not converged, maximum delta is    0.000017456466213
 Root      4 not converged, maximum delta is    0.000104086861427
 Root      5 not converged, maximum delta is    0.000042294810322
 Root      6 not converged, maximum delta is    0.000106572994098
 Root      7 not converged, maximum delta is    0.000249187780541
 Root      8 not converged, maximum delta is    0.000636056582778
 Root      9 not converged, maximum delta is    0.000876855652340
 Root     10 not converged, maximum delta is    0.010021356989261
 Excitation Energies [eV] at current iteration:
 Root      1 :     3.123190959201179   Change is   -0.000000000320650
 Root      2 :     3.996927620563878   Change is   -0.000000000854587
 Root      3 :     4.258389953358984   Change is   -0.000000023565738
 Root      4 :     4.297575717961541   Change is   -0.000000758705746
 Root      5 :     4.340483882783092   Change is   -0.000000037794742
 Root      6 :     4.511633696763725   Change is   -0.000000755303788
 Root      7 :     4.525344828115932   Change is   -0.000001950006134
 Root      8 :     4.555974649683171   Change is   -0.000006821212237
 Root      9 :     4.569017379008870   Change is   -0.000045178352887
 Root     10 :     4.619410268221732   Change is   -0.001329213529049
 Iteration     3 Dimension    80 NMult   260 NNew     20
 CISAX will form    20 AO SS matrices at one time.
 NMat=    20 NSing=    20 JSym2X= 0.
 Root      1 not converged, maximum delta is    0.000001615853166
 Root      2 not converged, maximum delta is    0.000003407342497
 Root      3 not converged, maximum delta is    0.000011007650200
 Root      4 not converged, maximum delta is    0.000053453307405
 Root      5 not converged, maximum delta is    0.000030573862919
 Root      6 not converged, maximum delta is    0.000089592151827
 Root      7 not converged, maximum delta is    0.000209551309869
 Root      8 not converged, maximum delta is    0.000420701511937
 Root      9 not converged, maximum delta is    0.001084722146058
 Root     10 not converged, maximum delta is    0.009061221279119
 Excitation Energies [eV] at current iteration:
 Root      1 :     3.123190959173068   Change is   -0.000000000028111
 Root      2 :     3.996927620308036   Change is   -0.000000000255842
 Root      3 :     4.258389947874500   Change is   -0.000000005484484
 Root      4 :     4.297575532470348   Change is   -0.000000185491193
 Root      5 :     4.340483869002407   Change is   -0.000000013780685
 Root      6 :     4.511633506443972   Change is   -0.000000190319752
 Root      7 :     4.525344039262908   Change is   -0.000000788853023
 Root      8 :     4.555972630103636   Change is   -0.000002019579536
 Root      9 :     4.569003937021087   Change is   -0.000013441987784
 Root     10 :     4.618682340984534   Change is   -0.000727927237198
 Iteration     4 Dimension   100 NMult   280 NNew     20
 CISAX will form    20 AO SS matrices at one time.
 NMat=    20 NSing=    20 JSym2X= 0.
 Root      1 has converged.
 Root      2 not converged, maximum delta is    0.000001145202463
 Root      3 not converged, maximum delta is    0.000008681369807
 Root      4 not converged, maximum delta is    0.000024100010552
 Root      5 not converged, maximum delta is    0.000008760974909
 Root      6 not converged, maximum delta is    0.000042225367224
 Root      7 not converged, maximum delta is    0.000089339563178
 Root      8 not converged, maximum delta is    0.000207594595365
 Root      9 not converged, maximum delta is    0.000547711621766
 Root     10 not converged, maximum delta is    0.003407265824711
 Excitation Energies [eV] at current iteration:
 Root      1 :     3.123190959029746   Change is   -0.000000000143321
 Root      2 :     3.996927620248349   Change is   -0.000000000059687
 Root      3 :     4.258389946142701   Change is   -0.000000001731798
 Root      4 :     4.297575494487147   Change is   -0.000000037983200
 Root      5 :     4.340483866047282   Change is   -0.000000002955125
 Root      6 :     4.511633462718980   Change is   -0.000000043724992
 Root      7 :     4.525343799542304   Change is   -0.000000239720604
 Root      8 :     4.555972183918579   Change is   -0.000000446185056
 Root      9 :     4.569000882501196   Change is   -0.000003054519891
 Root     10 :     4.618465943740164   Change is   -0.000216397244371
 Iteration     5 Dimension   118 NMult   300 NNew     18
 CISAX will form    18 AO SS matrices at one time.
 NMat=    18 NSing=    18 JSym2X= 0.
 Root      1 has converged.
 Root      2 has converged.
 Root      3 not converged, maximum delta is    0.000008784882747
 Root      4 not converged, maximum delta is    0.000011320130667
 Root      5 not converged, maximum delta is    0.000003906604831
 Root      6 not converged, maximum delta is    0.000045396755122
 Root      7 not converged, maximum delta is    0.000056128224727
 Root      8 not converged, maximum delta is    0.000095262341890
 Root      9 not converged, maximum delta is    0.000266818186345
 Root     10 not converged, maximum delta is    0.001906240108469
 Excitation Energies [eV] at current iteration:
 Root      1 :     3.123190959012637   Change is   -0.000000000017109
 Root      2 :     3.996927620229468   Change is   -0.000000000018881
 Root      3 :     4.258389945052983   Change is   -0.000000001089719
 Root      4 :     4.297575487113125   Change is   -0.000000007374022
 Root      5 :     4.340483865275716   Change is   -0.000000000771566
 Root      6 :     4.511633440466322   Change is   -0.000000022252658
 Root      7 :     4.525343721971579   Change is   -0.000000077570726
 Root      8 :     4.555972058411593   Change is   -0.000000125506986
 Root      9 :     4.568999920494475   Change is   -0.000000962006720
 Root     10 :     4.618393328029891   Change is   -0.000072615710273
 Iteration     6 Dimension   134 NMult   318 NNew     16
 CISAX will form    16 AO SS matrices at one time.
 NMat=    16 NSing=    16 JSym2X= 0.
 Root      1 has converged.
 Root      2 has converged.
 Root      3 not converged, maximum delta is    0.000007858161946
 Root      4 not converged, maximum delta is    0.000003872588758
 Root      5 not converged, maximum delta is    0.000002796325110
 Root      6 not converged, maximum delta is    0.000070717155299
 Root      7 not converged, maximum delta is    0.000039214835086
 Root      8 not converged, maximum delta is    0.000146555463045
 Root      9 not converged, maximum delta is    0.000477082967949
 Root     10 not converged, maximum delta is    0.001621218311096
 Excitation Energies [eV] at current iteration:
 Root      1 :     3.123190958974603   Change is   -0.000000000038035
 Root      2 :     3.996927620225519   Change is   -0.000000000003949
 Root      3 :     4.258389944415710   Change is   -0.000000000637272
 Root      4 :     4.297575486058936   Change is   -0.000000001054189
 Root      5 :     4.340483865112228   Change is   -0.000000000163487
 Root      6 :     4.511633419884805   Change is   -0.000000020581516
 Root      7 :     4.525343705783833   Change is   -0.000000016187745
 Root      8 :     4.555971979763514   Change is   -0.000000078648079
 Root      9 :     4.568999189107459   Change is   -0.000000731387016
 Root     10 :     4.618375025916898   Change is   -0.000018302112992
 Iteration     7 Dimension   150 NMult   334 NNew     16
 CISAX will form    16 AO SS matrices at one time.
 NMat=    16 NSing=    16 JSym2X= 0.
 Root      1 has converged.
 Root      2 has converged.
 Root      3 not converged, maximum delta is    0.000002659204384
 Root      4 not converged, maximum delta is    0.000001303638172
 Root      5 not converged, maximum delta is    0.000001139244867
 Root      6 not converged, maximum delta is    0.000038891399114
 Root      7 not converged, maximum delta is    0.000024800647153
 Root      8 not converged, maximum delta is    0.000093768571572
 Root      9 not converged, maximum delta is    0.000330074601461
 Root     10 not converged, maximum delta is    0.001194744931371
 Excitation Energies [eV] at current iteration:
 Root      1 :     3.123190958979182   Change is    0.000000000004580
 Root      2 :     3.996927620218403   Change is   -0.000000000007116
 Root      3 :     4.258389944251021   Change is   -0.000000000164689
 Root      4 :     4.297575485882665   Change is   -0.000000000176272
 Root      5 :     4.340483865069652   Change is   -0.000000000042576
 Root      6 :     4.511633410525435   Change is   -0.000000009359371
 Root      7 :     4.525343701349143   Change is   -0.000000004434691
 Root      8 :     4.555971941349438   Change is   -0.000000038414077
 Root      9 :     4.568998788464084   Change is   -0.000000400643375
 Root     10 :     4.618368395290807   Change is   -0.000006630626091
 Iteration     8 Dimension   166 NMult   350 NNew     16
 CISAX will form    16 AO SS matrices at one time.
 NMat=    16 NSing=    16 JSym2X= 0.
 Root      1 has converged.
 Root      2 has converged.
 Root      3 has converged.
 Root      4 has converged.
 Root      5 has converged.
 Root      6 not converged, maximum delta is    0.000010226826429
 Root      7 not converged, maximum delta is    0.000008138814481
 Root      8 not converged, maximum delta is    0.000026064349218
 Root      9 not converged, maximum delta is    0.000095264674319
 Root     10 not converged, maximum delta is    0.000527864145984
 Excitation Energies [eV] at current iteration:
 Root      1 :     3.123190958991291   Change is    0.000000000012108
 Root      2 :     3.996927620220172   Change is    0.000000000001769
 Root      3 :     4.258389944233994   Change is   -0.000000000017027
 Root      4 :     4.297575485905428   Change is    0.000000000022763
 Root      5 :     4.340483865060069   Change is   -0.000000000009584
 Root      6 :     4.511633408689919   Change is   -0.000000001835516
 Root      7 :     4.525343700430686   Change is   -0.000000000918456
 Root      8 :     4.555971933062361   Change is   -0.000000008287077
 Root      9 :     4.568998697768233   Change is   -0.000000090695850
 Root     10 :     4.618366343973764   Change is   -0.000002051317043
 Iteration     9 Dimension   176 NMult   366 NNew     10
 CISAX will form    10 AO SS matrices at one time.
 NMat=    10 NSing=    10 JSym2X= 0.
 Root      1 has converged.
 Root      2 has converged.
 Root      3 has converged.
 Root      4 has converged.
 Root      5 has converged.
 Root      6 not converged, maximum delta is    0.000002846197125
 Root      7 not converged, maximum delta is    0.000005253694244
 Root      8 not converged, maximum delta is    0.000005157128171
 Root      9 not converged, maximum delta is    0.000020138432896
 Root     10 not converged, maximum delta is    0.000380591567044
 Excitation Energies [eV] at current iteration:
 Root      1 :     3.123190958965311   Change is   -0.000000000025980
 Root      2 :     3.996927620219060   Change is   -0.000000000001111
 Root      3 :     4.258389944239148   Change is    0.000000000005154
 Root      4 :     4.297575485833216   Change is   -0.000000000072211
 Root      5 :     4.340483865053818   Change is   -0.000000000006251
 Root      6 :     4.511633408337155   Change is   -0.000000000352764
 Root      7 :     4.525343700133127   Change is   -0.000000000297560
 Root      8 :     4.555971931657987   Change is   -0.000000001404375
 Root      9 :     4.568998681707267   Change is   -0.000000016060966
 Root     10 :     4.618365481712645   Change is   -0.000000862261119
 Iteration    10 Dimension   186 NMult   376 NNew     10
 CISAX will form    10 AO SS matrices at one time.
 NMat=    10 NSing=    10 JSym2X= 0.
 Root      1 has converged.
 Root      2 has converged.
 Root      3 has converged.
 Root      4 has converged.
 Root      5 has converged.
 Root      6 not converged, maximum delta is    0.000002763730479
 Root      7 not converged, maximum delta is    0.000005498990607
 Root      8 not converged, maximum delta is    0.000001687738220
 Root      9 not converged, maximum delta is    0.000005627882512
 Root     10 not converged, maximum delta is    0.000490851571217
 Excitation Energies [eV] at current iteration:
 Root      1 :     3.123190958978709   Change is    0.000000000013398
 Root      2 :     3.996927620212952   Change is   -0.000000000006109
 Root      3 :     4.258389944249998   Change is    0.000000000010849
 Root      4 :     4.297575485827478   Change is   -0.000000000005739
 Root      5 :     4.340483865059727   Change is    0.000000000005909
 Root      6 :     4.511633408236264   Change is   -0.000000000100891
 Root      7 :     4.525343699970922   Change is   -0.000000000162204
 Root      8 :     4.555971931437688   Change is   -0.000000000220298
 Root      9 :     4.568998679203221   Change is   -0.000000002504046
 Root     10 :     4.618364879287371   Change is   -0.000000602425274
 Iteration    11 Dimension   196 NMult   386 NNew     10
 CISAX will form    10 AO SS matrices at one time.
 NMat=    10 NSing=    10 JSym2X= 0.
 Root      1 has converged.
 Root      2 has converged.
 Root      3 has converged.
 Root      4 has converged.
 Root      5 has converged.
 Root      6 not converged, maximum delta is    0.000002224576677
 Root      7 not converged, maximum delta is    0.000004313616307
 Root      8 not converged, maximum delta is    0.000001135587703
 Root      9 not converged, maximum delta is    0.000003788846633
 Root     10 not converged, maximum delta is    0.000418877968175
 Excitation Energies [eV] at current iteration:
 Root      1 :     3.123190958970365   Change is   -0.000000000008344
 Root      2 :     3.996927620216264   Change is    0.000000000003312
 Root      3 :     4.258389944246311   Change is   -0.000000000003687
 Root      4 :     4.297575485866730   Change is    0.000000000039252
 Root      5 :     4.340483865057152   Change is   -0.000000000002575
 Root      6 :     4.511633408174986   Change is   -0.000000000061278
 Root      7 :     4.525343699893445   Change is   -0.000000000077478
 Root      8 :     4.555971931393282   Change is   -0.000000000044406
 Root      9 :     4.568998678772338   Change is   -0.000000000430883
 Root     10 :     4.618364492350290   Change is   -0.000000386937081
 Davidson failed to converge within maximum sub-space dimensions.
  Restart with updated initial guess:
 Iteration     1 Dimension    30 NMult   396 NNew     30
 CISAX will form    30 AO SS matrices at one time.
 NMat=    30 NSing=    30 JSym2X= 0.
 Excitation Energies [eV] at current iteration:
 Root      1 :     3.123190958813514
 Root      2 :     3.996927619863754
 Root      3 :     4.258389944119034
 Root      4 :     4.297575485697172
 Root      5 :     4.340483864947851
 Root      6 :     4.511633407144084
 Root      7 :     4.525343699620191
 Root      8 :     4.555971932312041
 Root      9 :     4.568998678875830
 Root     10 :     4.618364399619421
 Iteration     2 Dimension    50 NMult   426 NNew     20
 CISAX will form    20 AO SS matrices at one time.
 NMat=    20 NSing=    20 JSym2X= 0.
 Root      1 has converged.
 Root      2 has converged.
 Root      3 has converged.
 Root      4 has converged.
 Root      5 has converged.
 Root      6 has converged.
 Root      7 has converged.
 Root      8 has converged.
 Root      9 has converged.
 Root     10 not converged, maximum delta is    0.000041846881351
 Excitation Energies [eV] at current iteration:
 Root      1 :     3.123190958803328   Change is   -0.000000000010187
 Root      2 :     3.996927619865893   Change is    0.000000000002139
 Root      3 :     4.258389944117277   Change is   -0.000000000001757
 Root      4 :     4.297575485778661   Change is    0.000000000081489
 Root      5 :     4.340483864945218   Change is   -0.000000000002633
 Root      6 :     4.511633407141296   Change is   -0.000000000002788
 Root      7 :     4.525343699569581   Change is   -0.000000000050610
 Root      8 :     4.555971932314207   Change is    0.000000000002165
 Root      9 :     4.568998678853844   Change is   -0.000000000021987
 Root     10 :     4.618364359160978   Change is   -0.000000040458443
 Iteration     3 Dimension    52 NMult   446 NNew      2
 CISAX will form     2 AO SS matrices at one time.
 NMat=     2 NSing=     2 JSym2X= 0.
 Root      1 has converged.
 Root      2 has converged.
 Root      3 has converged.
 Root      4 has converged.
 Root      5 has converged.
 Root      6 has converged.
 Root      7 has converged.
 Root      8 has converged.
 Root      9 has converged.
 Root     10 not converged, maximum delta is    0.000053459176134
 Excitation Energies [eV] at current iteration:
 Root      1 :     3.123190958802275   Change is   -0.000000000001053
 Root      2 :     3.996927619865811   Change is   -0.000000000000082
 Root      3 :     4.258389944115887   Change is   -0.000000000001390
 Root      4 :     4.297575485760182   Change is   -0.000000000018478
 Root      5 :     4.340483864943570   Change is   -0.000000000001648
 Root      6 :     4.511633407140167   Change is   -0.000000000001130
 Root      7 :     4.525343699566892   Change is   -0.000000000002689
 Root      8 :     4.555971932313449   Change is   -0.000000000000758
 Root      9 :     4.568998678853088   Change is   -0.000000000000755
 Root     10 :     4.618364342021317   Change is   -0.000000017139661
 Iteration     4 Dimension    54 NMult   448 NNew      2
 CISAX will form     2 AO SS matrices at one time.
 NMat=     2 NSing=     2 JSym2X= 0.
 Root      1 has converged.
 Root      2 has converged.
 Root      3 has converged.
 Root      4 has converged.
 Root      5 has converged.
 Root      6 has converged.
 Root      7 has converged.
 Root      8 has converged.
 Root      9 has converged.
 Root     10 not converged, maximum delta is    0.000054849306340
 Excitation Energies [eV] at current iteration:
 Root      1 :     3.123190958804012   Change is    0.000000000001737
 Root      2 :     3.996927619866078   Change is    0.000000000000267
 Root      3 :     4.258389944115366   Change is   -0.000000000000521
 Root      4 :     4.297575485746372   Change is   -0.000000000013811
 Root      5 :     4.340483864944764   Change is    0.000000000001193
 Root      6 :     4.511633407143664   Change is    0.000000000003498
 Root      7 :     4.525343699571161   Change is    0.000000000004269
 Root      8 :     4.555971932316625   Change is    0.000000000003176
 Root      9 :     4.568998678852458   Change is   -0.000000000000630
 Root     10 :     4.618364333326379   Change is   -0.000000008694938
 Iteration     5 Dimension    56 NMult   450 NNew      2
 CISAX will form     2 AO SS matrices at one time.
 NMat=     2 NSing=     2 JSym2X= 0.
 Root      1 has converged.
 Root      2 has converged.
 Root      3 has converged.
 Root      4 has converged.
 Root      5 has converged.
 Root      6 has converged.
 Root      7 has converged.
 Root      8 has converged.
 Root      9 has converged.
 Root     10 not converged, maximum delta is    0.000046912891631
[...]
    24  H    0.000058  -0.008426  -0.006647   0.585757   0.007045  -0.074236
    25  H   -0.011375   0.000000  -0.119288   0.000350   0.558028  -0.000516
    26  H    0.000000  -0.011378   0.000350  -0.119332  -0.000516   0.558083
    27  H    0.003210   0.000003   0.225573  -0.004953  -0.315816  -0.008091
    28  H    0.000003   0.003212  -0.004966   0.225762  -0.008075  -0.316201
    29  H    0.000121   0.000121  -0.008049  -0.008030  -0.002007  -0.002102
    30  H    0.000009   0.000009   0.000628   0.000616  -0.001783  -0.001752
    31  H    0.000000   0.000000  -0.000103  -0.000098  -0.000114  -0.000139
    32  H   -0.000002  -0.000002  -0.000521  -0.000518   0.000474   0.000473
    33  C    0.000154   0.000154   0.019218   0.018805  -0.011430  -0.010048
    34  O    0.000000   0.000000   0.003063   0.003069  -0.011566  -0.011576
    35  O   -0.000025  -0.000025  -0.013857  -0.013880   0.050829   0.050830
               7          8          9         10         11         12
     1  O    0.007800   0.000312  -0.055907   0.000433   0.140945   0.010875
     2  O    0.000312   0.007826   0.000432  -0.055929   0.010877   0.140961
     3  C    8.956652  -0.869545   0.628997  -4.692104  -9.386679   0.735569
     4  C   -0.869062   8.962368  -4.690881   0.631215   0.733169  -9.396080
     5  C   -7.459785  -0.318088  -5.463500   1.254134   5.046368  -0.016275
     6  C   -0.318336  -7.462621   1.253304  -5.463590  -0.014579   5.050438
     7  C   18.875713  -1.657049   1.555110  -3.686058  -4.539680  -1.484899
     8  C   -1.657049  18.881572  -3.687985   1.557154  -1.485129  -4.545223
     9  C    1.555110  -3.687985  19.136231  -2.549961  -0.056281   0.605265
    10  C   -3.686058   1.557154  -2.549961  19.139814   0.601622  -0.061784
    11  C   -4.539680  -1.485129  -0.056281   0.601622  17.947833   1.181765
    12  C   -1.484899  -4.545223   0.605265  -0.061784   1.181765  17.957453
    13  C   -0.208370  -0.066513   0.179508   0.037417  -1.078053   0.061833
    14  C   -0.066553  -0.209522   0.037932   0.178945   0.062037  -1.077007
    15  O    0.014543   0.014507   0.016404   0.016336  -0.027580  -0.027592
    16  C   -4.865043  -4.866815   5.570742   5.573606   1.103201   1.104292
    17  C    0.120780   0.121855  -1.755746  -1.749077  -2.213260  -2.212550
    18  C   -0.506346  -0.504724   4.198375   4.205142   1.407184   1.407685
    19  C   -0.143831  -0.143884  -0.006801  -0.010234   0.320153   0.319931
    20  C    0.001456   0.001353   0.124690   0.126194  -0.027394  -0.027349
    21  C    0.497297   0.497467  -1.686244  -1.688248  -0.587620  -0.587564
    22  C    1.877857   1.874452  -7.349479  -7.359034  -3.327642  -3.328623
    23  H    0.087981  -0.005227   0.041732  -0.046079  -0.138775  -0.012045
    24  H   -0.005215   0.087941  -0.046053   0.041792  -0.012098  -0.138642
    25  H   -0.266259  -0.001839   0.065337   0.017513   0.075882  -0.002417
    26  H   -0.001843  -0.266329   0.017509   0.065317  -0.002416   0.075928
    27  H    0.741724  -0.021333   0.035280  -0.136379  -0.070128  -0.029878
    28  H   -0.021312   0.742046  -0.136427   0.035492  -0.029856  -0.070231
    29  H    0.036655   0.036541  -0.004574  -0.004419  -0.051622  -0.051639
    30  H    0.001648   0.001642  -0.001870  -0.001938   0.007862   0.007860
    31  H    0.001222   0.001218  -0.005963  -0.005917  -0.001688  -0.001687
    32  H   -0.004110  -0.004100   0.012112   0.012133   0.003551   0.003557
    33  C    0.046808   0.047344  -0.450490  -0.452749   0.084692   0.084759
    34  O    0.013102   0.013118  -0.004277  -0.004244  -0.008814  -0.008815
    35  O   -0.049333  -0.049383   0.065247   0.065233   0.084327   0.084346
              13         14         15         16         17         18
     1  O    0.534144  -0.000030  -0.002674   0.009207  -0.001159   0.000277
     2  O   -0.000030   0.534181  -0.002675   0.009204  -0.001166   0.000278
     3  C    0.438223  -0.093231  -0.336299  -4.468478   0.091611  -0.090776
     4  C   -0.093417   0.436245  -0.336382  -4.468449   0.092044  -0.088757
     5  C   -0.594325  -0.009384   0.001379   0.270006  -0.421990  -0.384252
     6  C   -0.009272  -0.593206   0.001325   0.269662  -0.424672  -0.386643
     7  C   -0.208370  -0.066553   0.014543  -4.865043   0.120780  -0.506346
     8  C   -0.066513  -0.209522   0.014507  -4.866815   0.121855  -0.504724
     9  C    0.179508   0.037932   0.016404   5.570742  -1.755746   4.198375
    10  C    0.037417   0.178945   0.016336   5.573606  -1.749077   4.205142
    11  C   -1.078053   0.062037  -0.027580   1.103201  -2.213260   1.407184
    12  C    0.061833  -1.077007  -0.027592   1.104292  -2.212550   1.407685
    13  C    8.236601  -0.025601  -0.008047  -0.637025  -0.085877   0.038636
    14  C   -0.025601   8.236906  -0.008018  -0.636477  -0.085872   0.038583
    15  O   -0.008047  -0.008018   8.480796   0.304998   0.043952  -0.023584
    16  C   -0.637025  -0.636477   0.304998  24.448577   0.637334   6.895739
    17  C   -0.085877  -0.085872   0.043952   0.637334  36.469652  -8.190376
    18  C    0.038636   0.038583  -0.023584   6.895739  -8.190376  25.937215
    19  C   -0.026317  -0.026293  -0.013010  -0.450554  -4.453598  -2.281018
    20  C   -0.004729  -0.004746   0.002074   0.703216   0.463852  -1.461213
    21  C    0.020575   0.020583   0.006145  -5.434156 -10.108088   0.280553
    22  C   -0.072305  -0.072293   0.052640 -15.284783   0.155476 -22.992483
    23  H   -0.056948   0.004545  -0.030586  -0.034520  -0.002755   0.001969
    24  H    0.004539  -0.057081  -0.030591  -0.034488  -0.002739   0.001976
    25  H   -0.031751   0.000140   0.001264   0.057776  -0.010012   0.006738
    26  H    0.000140  -0.031722   0.001264   0.057749  -0.010027   0.006707
    27  H    0.020907   0.000479  -0.001903  -0.246361   0.042770  -0.024310
    28  H    0.000480   0.020863  -0.001904  -0.246250   0.042929  -0.023967
    29  H    0.006717   0.006702   0.001094  -0.132764  -0.078211   0.679435
    30  H    0.001093   0.001094  -0.000354   0.037429  -0.009089   0.021055
    31  H   -0.000034  -0.000035   0.000033  -0.018338  -0.039939  -0.062197
    32  H   -0.000007  -0.000007  -0.000011   0.064230   0.229227   0.081717
    33  C    0.001399   0.001418  -0.013241  -0.562737  -2.053402  -1.430693
    34  O   -0.000259  -0.000261   0.000006  -0.129832  -0.181888  -0.043901
    35  O    0.002755   0.002763  -0.006655   0.243035   0.183917   0.020432
              19         20         21         22         23         24
     1  O   -0.000120   0.000021   0.000084   0.000624  -0.008426   0.000058
     2  O   -0.000121   0.000021   0.000084   0.000622   0.000058  -0.008426
     3  C    0.016499  -0.006539  -0.032051  -0.079929   0.585843  -0.006647
     4  C    0.015930  -0.006331  -0.032441  -0.083155  -0.006654   0.585757
     5  C    0.126153  -0.049727   0.299104   0.765683  -0.074256   0.007045
     6  C    0.127703  -0.050574   0.300385   0.768738   0.007034  -0.074236
     7  C   -0.143831   0.001456   0.497297   1.877857   0.087981  -0.005215
     8  C   -0.143884   0.001353   0.497467   1.874452  -0.005227   0.087941
     9  C   -0.006801   0.124690  -1.686244  -7.349479   0.041732  -0.046053
    10  C   -0.010234   0.126194  -1.688248  -7.359034  -0.046079   0.041792
    11  C    0.320153  -0.027394  -0.587620  -3.327642  -0.138775  -0.012098
    12  C    0.319931  -0.027349  -0.587564  -3.328623  -0.012045  -0.138642
    13  C   -0.026317  -0.004729   0.020575  -0.072305  -0.056948   0.004539
    14  C   -0.026293  -0.004746   0.020583  -0.072293   0.004545  -0.057081
    15  O   -0.013010   0.002074   0.006145   0.052640  -0.030586  -0.030591
    16  C   -0.450554   0.703216  -5.434156 -15.284783  -0.034520  -0.034488
    17  C   -4.453598   0.463852 -10.108088   0.155476  -0.002755  -0.002739
    18  C   -2.281018  -1.461213   0.280553 -22.992483   0.001969   0.001976
    19  C   11.098029  -0.273824  -1.045500   2.888466   0.000662   0.000662
    20  C   -0.273824  12.273450  -3.546101  -2.367307  -0.000250  -0.000250
    21  C   -1.045500  -3.546101  21.105503   6.658602  -0.000124  -0.000127
    22  C    2.888466  -2.367307   6.658602  52.993181  -0.001962  -0.001974
    23  H    0.000662  -0.000250  -0.000124  -0.001962   0.521281  -0.003764
    24  H    0.000662  -0.000250  -0.000127  -0.001974  -0.003764   0.521285
    25  H    0.005118   0.002114  -0.007502  -0.016558  -0.004679   0.000016
    26  H    0.005129   0.002109  -0.007488  -0.016508   0.000016  -0.004678
    27  H   -0.061992   0.011116   0.075836   0.088805   0.004043  -0.000244
    28  H   -0.062059   0.011144   0.075703   0.088161  -0.000244   0.004044
    29  H   -0.368147  -0.016883   0.184197   0.023866   0.000116   0.000116
    30  H    0.367939  -0.008780   0.001223  -0.098180   0.000011   0.000011
    31  H    0.002892   0.468101  -0.124453   0.089009  -0.000003  -0.000003
    32  H   -0.040264   0.014026   0.199527  -0.183456  -0.000005  -0.000005
    33  C    0.539393  -0.155033   0.888063   1.721638  -0.000078  -0.000077
    34  O   -0.008792   0.226136   0.204460  -0.212146   0.000024   0.000024
    35  O   -0.013557   0.026837  -0.193390  -0.595010   0.000054   0.000054
              25         26         27         28         29         30
     1  O   -0.011375   0.000000   0.003210   0.000003   0.000121   0.000009
     2  O    0.000000  -0.011378   0.000003   0.003212   0.000121   0.000009
     3  C   -0.119288   0.000350   0.225573  -0.004966  -0.008049   0.000628
     4  C    0.000350  -0.119332  -0.004953   0.225762  -0.008030   0.000616
     5  C    0.558028  -0.000516  -0.315816  -0.008075  -0.002007  -0.001783
     6  C   -0.000516   0.558083  -0.008091  -0.316201  -0.002102  -0.001752
     7  C   -0.266259  -0.001843   0.741724  -0.021312   0.036655   0.001648
     8  C   -0.001839  -0.266329  -0.021333   0.742046   0.036541   0.001642
     9  C    0.065337   0.017509   0.035280  -0.136427  -0.004574  -0.001870
    10  C    0.017513   0.065317  -0.136379   0.035492  -0.004419  -0.001938
    11  C    0.075882  -0.002416  -0.070128  -0.029856  -0.051622   0.007862
    12  C   -0.002417   0.075928  -0.029878  -0.070231  -0.051639   0.007860
    13  C   -0.031751   0.000140   0.020907   0.000480   0.006717   0.001093
    14  C    0.000140  -0.031722   0.000479   0.020863   0.006702   0.001094
    15  O    0.001264   0.001264  -0.001903  -0.001904   0.001094  -0.000354
    16  C    0.057776   0.057749  -0.246361  -0.246250  -0.132764   0.037429
    17  C   -0.010012  -0.010027   0.042770   0.042929  -0.078211  -0.009089
    18  C    0.006738   0.006707  -0.024310  -0.023967   0.679435   0.021055
    19  C    0.005118   0.005129  -0.061992  -0.062059  -0.368147   0.367939
    20  C    0.002114   0.002109   0.011116   0.011144  -0.016883  -0.008780
    21  C   -0.007502  -0.007488   0.075836   0.075703   0.184197   0.001223
    22  C   -0.016558  -0.016508   0.088805   0.088161   0.023866  -0.098180
    23  H   -0.004679   0.000016   0.004043  -0.000244   0.000116   0.000011
    24  H    0.000016  -0.004678  -0.000244   0.004044   0.000116   0.000011
    25  H    0.540308   0.000002  -0.029382  -0.000199  -0.001285  -0.000214
    26  H    0.000002   0.540310  -0.000199  -0.029386  -0.001283  -0.000214
    27  H   -0.029382  -0.000199   0.551314   0.001649   0.009376   0.000157
    28  H   -0.000199  -0.029386   0.001649   0.551325   0.009372   0.000157
    29  H   -0.001285  -0.001283   0.009376   0.009372   0.571209  -0.009365
    30  H   -0.000214  -0.000214   0.000157   0.000157  -0.009365   0.553231
    31  H    0.000044   0.000044  -0.000411  -0.000413   0.000318  -0.011903
    32  H    0.000111   0.000111  -0.000893  -0.000891  -0.000467   0.001514
    33  C   -0.001628  -0.001620  -0.005901  -0.005908  -0.010747  -0.007856
    34  O   -0.000306  -0.000306   0.004031   0.004036   0.001061  -0.000466
    35  O    0.000738   0.000738  -0.000934  -0.000937  -0.003188  -0.000570
              31         32         33         34         35
     1  O    0.000000  -0.000002   0.000154   0.000000  -0.000025
     2  O    0.000000  -0.000002   0.000154   0.000000  -0.000025
     3  C   -0.000103  -0.000521   0.019218   0.003063  -0.013857
     4  C   -0.000098  -0.000518   0.018805   0.003069  -0.013880
     5  C   -0.000114   0.000474  -0.011430  -0.011566   0.050829
     6  C   -0.000139   0.000473  -0.010048  -0.011576   0.050830
     7  C    0.001222  -0.004110   0.046808   0.013102  -0.049333
     8  C    0.001218  -0.004100   0.047344   0.013118  -0.049383
     9  C   -0.005963   0.012112  -0.450490  -0.004277   0.065247
    10  C   -0.005917   0.012133  -0.452749  -0.004244   0.065233
    11  C   -0.001688   0.003551   0.084692  -0.008814   0.084327
    12  C   -0.001687   0.003557   0.084759  -0.008815   0.084346
    13  C   -0.000034  -0.000007   0.001399  -0.000259   0.002755
    14  C   -0.000035  -0.000007   0.001418  -0.000261   0.002763
    15  O    0.000033  -0.000011  -0.013241   0.000006  -0.006655
    16  C   -0.018338   0.064230  -0.562737  -0.129832   0.243035
    17  C   -0.039939   0.229227  -2.053402  -0.181888   0.183917
    18  C   -0.062197   0.081717  -1.430693  -0.043901   0.020432
    19  C    0.002892  -0.040264   0.539393  -0.008792  -0.013557
    20  C    0.468101   0.014026  -0.155033   0.226136   0.026837
    21  C   -0.124453   0.199527   0.888063   0.204460  -0.193390
    22  C    0.089009  -0.183456   1.721638  -0.212146  -0.595010
    23  H   -0.000003  -0.000005  -0.000078   0.000024   0.000054
    24  H   -0.000003  -0.000005  -0.000077   0.000024   0.000054
    25  H    0.000044   0.000111  -0.001628  -0.000306   0.000738
    26  H    0.000044   0.000111  -0.001620  -0.000306   0.000738
    27  H   -0.000411  -0.000893  -0.005901   0.004031  -0.000934
    28  H   -0.000413  -0.000891  -0.005908   0.004036  -0.000937
    29  H    0.000318  -0.000467  -0.010747   0.001061  -0.003188
    30  H   -0.011903   0.001514  -0.007856  -0.000466  -0.000570
    31  H    0.562059  -0.009835   0.022178   0.002360   0.000309
    32  H   -0.009835   0.439200  -0.082516   0.019119   0.006799
    33  C    0.022178  -0.082516   7.045234   0.355575   0.270310
    34  O    0.002360   0.019119   0.355575   8.383028  -0.122287
    35  O    0.000309   0.006799   0.270310  -0.122287   8.307795
 Mulliken charges:
               1
     1  O   -0.447255
     2  O   -0.447255
     3  C   -0.416307
     4  C   -0.416110
     5  C    0.004139
     6  C    0.004184
     7  C   -0.683578
     8  C   -0.683408
     9  C    0.408232
    10  C    0.408251
    11  C    0.247824
    12  C    0.247780
    13  C   -0.586085
    14  C   -0.586076
    15  O   -0.087655
    16  C    1.157068
    17  C    1.396092
    18  C   -0.734460
    19  C   -0.404742
    20  C   -0.450878
    21  C   -0.234293
    22  C   -0.604992
    23  H    0.172011
    24  H    0.172017
    25  H    0.173732
    26  H    0.173739
    27  H    0.142835
    28  H    0.142849
    29  H    0.187765
    30  H    0.149142
    31  H    0.133486
    32  H    0.239731
    33  C    0.109012
    34  O   -0.482477
    35  O   -0.404318
 Sum of Mulliken charges =  -2.00000
 Mulliken charges with hydrogens summed into heavy atoms:
               1
     1  O   -0.447255
     2  O   -0.447255
     3  C   -0.244296
     4  C   -0.244094
     5  C    0.177871
     6  C    0.177923
     7  C   -0.540743
     8  C   -0.540559
     9  C    0.408232
    10  C    0.408251
    11  C    0.247824
    12  C    0.247780
    13  C   -0.586085
    14  C   -0.586076
    15  O   -0.087655
    16  C    1.157068
    17  C    1.396092
    18  C   -0.546695
    19  C   -0.255599
    20  C   -0.317392
    21  C    0.005438
    22  C   -0.604992
    33  C    0.109012
    34  O   -0.482477
    35  O   -0.404318
 Electronic spatial extent (au):  <R**2>=           8041.1193
 Charge=             -2.0000 electrons
 Dipole moment (field-independent basis, Debye):
    X=             -5.2985    Y=             -7.9693    Z=              0.0247  Tot=              9.5700
 Quadrupole moment (field-independent basis, Debye-Ang):
   XX=           -219.8663   YY=           -194.0751   ZZ=           -263.2117
   XY=             31.7735   XZ=             -0.0821   YZ=             -0.1257
 Traceless Quadrupole moment (field-independent basis, Debye-Ang):
   XX=              5.8514   YY=             31.6426   ZZ=            -37.4940
   XY=             31.7735   XZ=             -0.0821   YZ=             -0.1257
 Octapole moment (field-independent basis, Debye-Ang**2):
  XXX=             -7.4600  YYY=           -114.0384  ZZZ=              1.0327  XYY=             90.5791
  XXY=            -34.6810  XXZ=             -0.3290  XZZ=           -318.3754  YZZ=             80.8261
  YYZ=              0.4885  XYZ=             -0.5524
 Hexadecapole moment (field-independent basis, Debye-Ang**3):
 XXXX=          -5720.3891 YYYY=          -1798.5854 ZZZZ=          -7674.6104 XXXY=            576.5057
 XXXZ=             -2.7709 YYYX=            638.5221 YYYZ=             -2.8503 ZZZX=             -0.1072
 ZZZY=             -7.4427 XXYY=          -1375.6917 XXZZ=          -2676.9321 YYZZ=          -1133.8891
 XXYZ=             -1.9631 YYXZ=              0.0947 ZZXY=            286.7285
 N-N= 2.021616333595D+03 E-N=-6.754408576702D+03  KE= 1.139299133076D+03
 No NMR shielding tensors so no spin-rotation constants.
 Leave Link  601 at Thu Dec 26 15:59:14 2019, MaxMem=  6710886400 cpu:         7.5
 (Enter /opt/sys/apps/gaussian09/D.01/g09/l9999.exe)

 Test job not archived.
 1\1\GINC-S52P34\SP\RCAM-B3LYP TD-FC\6-311++G(d,p)\C20H10O5(2-)\SALVATO
 RE\26-Dec-2019\0\\#p CAM-B3LYP/6-311++G** geom=allcheck nosym TD=(NSTA
 TES=10,ROOT=1) density=current iop(3/119=0810000000) iop(3/120=0810000
 000)\\dianion\\-2,1\O,0,2.7783509703,-0.5716058945,-4.7124299292\O,0,2
 .7865170911,-0.5571460404,4.7077954058\C,0,2.7154744679,-0.4455198136,
 -2.3396192324\C,0,2.7194901527,-0.438520091,2.334711651\C,0,0.65993829
 44,-0.3174288668,-3.6571378549\C,0,0.6662574807,-0.3063706381,3.655389
 5593\C,0,-0.0714571745,-0.2099981221,-2.5095865341\C,0,-0.0671227628,-
 0.202389272,2.5087741726\C,0,0.5337826566,-0.2232360046,-1.2159811947\
 C,0,0.5358737989,-0.2195064909,1.2141883255\C,0,1.9578869645,-0.334503
 9045,-1.1982367143\C,0,1.9599260235,-0.3308791241,1.1943130639\C,0,2.1
 131289313,-0.4525597347,-3.6502546675\C,0,2.1194315052,-0.4414782464,3
 .6464063547\O,0,2.6306403281,-0.3573818489,-0.0025061061\C,0,-0.174043
 6473,-0.1438950601,-0.0004212225\C,0,-1.6725133776,-0.2546810932,0.001
 078389\C,0,-2.1805560243,-1.5651934429,0.0035340299\C,0,-3.549222701,-
 1.8152613331,0.0054581016\C,0,-4.4413745429,-0.7416919406,0.0049309866
 \C,0,-3.9454162054,0.5574000684,0.0023971955\C,0,-2.5698997678,0.82850
 42214,0.0004113481\H,0,3.7927865216,-0.5374671482,-2.262096881\H,0,3.7
 966634276,-0.5307162335,2.2555640766\H,0,0.1771939577,-0.3002649797,-4
 .629584409\H,0,0.1851728424,-0.2862775786,4.6286017301\H,0,-1.14913758
 2,-0.1026932545,-2.5613959557\H,0,-1.1447146103,-0.0949623014,2.562133
 5712\H,0,-1.4804416458,-2.3945208263,0.0039587264\H,0,-3.9126493607,-2
 .8390044403,0.0073541487\H,0,-5.5138194166,-0.9200326712,0.0065085485\
 H,0,-4.6002799264,1.4216820848,0.0017765092\C,0,-2.10789697,2.31436276
 55,-0.0025735534\O,0,-3.0333640598,3.1629290067,-0.0029025916\O,0,-0.8
 714123866,2.4847608626,-0.0041862917\\Version=ES64L-G09RevD.01\HF=-114
 3.2801848\RMSD=5.952e-09\Dipole=-2.1804761,-3.1742583,0.0071628\Quadru
 pole=4.3503721,23.5255109,-27.875883,23.6228181,-0.0610393,-0.0934598\
 PG=C01 [X(C20H10O5)]\\@


 STEINBACH'S GUIDELINES FOR SYSTEMS PROGRAMMING:
 NEVER TEST FOR AN ERROR CONDITION YOU DON'T KNOW HOW
 TO HANDLE.
 Job cpu time:       0 days 21 hours 27 minutes 56.8 seconds.
 File lengths (MBytes):  RWF=    969 Int=      0 D2E=      0 Chk=    268 Scr=      1
 Normal termination of Gaussian 09 at Thu Dec 26 15:59:15 2019.
