

     ************************************************************************
     *************** Dalton - An Electronic Structure Program ***************
     ************************************************************************

    This is output from DALTON release Dalton2019.alpha (2019)
         ( Web site: http://daltonprogram.org )

   ----------------------------------------------------------------------------

    NOTE:
     
    Dalton is an experimental code for the evaluation of molecular
    properties using (MC)SCF, DFT, CI, and CC wave functions.
    The authors accept no responsibility for the performance of
    the code or for the correctness of the results.
     
    The code (in whole or part) is provided under a licence and
    is not to be reproduced for further distribution without
    the written permission of the authors or their representatives.
     
    See the home page "http://daltonprogram.org" for further information.
     
    If results obtained with this code are published,
    the appropriate citations would be both of:
     
       K. Aidas, C. Angeli, K. L. Bak, V. Bakken, R. Bast,
       L. Boman, O. Christiansen, R. Cimiraglia, S. Coriani,
       P. Dahle, E. K. Dalskov, U. Ekstroem,
       T. Enevoldsen, J. J. Eriksen, P. Ettenhuber, B. Fernandez,
       L. Ferrighi, H. Fliegl, L. Frediani, K. Hald, A. Halkier,
       C. Haettig, H. Heiberg, T. Helgaker, A. C. Hennum,
       H. Hettema, E. Hjertenaes, S. Hoest, I.-M. Hoeyvik,
       M. F. Iozzi, B. Jansik, H. J. Aa. Jensen, D. Jonsson,
       P. Joergensen, J. Kauczor, S. Kirpekar,
       T. Kjaergaard, W. Klopper, S. Knecht, R. Kobayashi, H. Koch,
       J. Kongsted, A. Krapp, K. Kristensen, A. Ligabue,
       O. B. Lutnaes, J. I. Melo, K. V. Mikkelsen, R. H. Myhre,
       C. Neiss, C. B. Nielsen, P. Norman, J. Olsen,
       J. M. H. Olsen, A. Osted, M. J. Packer, F. Pawlowski,
       T. B. Pedersen, P. F. Provasi, S. Reine, Z. Rinkevicius,
       T. A. Ruden, K. Ruud, V. Rybkin, P. Salek, C. C. M. Samson,
       A. Sanchez de Meras, T. Saue, S. P. A. Sauer,
       B. Schimmelpfennig, K. Sneskov, A. H. Steindal,
       K. O. Sylvester-Hvid, P. R. Taylor, A. M. Teale,
       E. I. Tellgren, D. P. Tew, A. J. Thorvaldsen, L. Thoegersen,
       O. Vahtras, M. A. Watson, D. J. D. Wilson, M. Ziolkowski
       and H. Agren,
       "The Dalton quantum chemistry program system",
       WIREs Comput. Mol. Sci. 2014, 4:269–284 (doi: 10.1002/wcms.1172)
     
    and
     
       Dalton, a molecular electronic structure program,
       Release Dalton2019.alpha (2019), see http://daltonprogram.org
   ----------------------------------------------------------------------------

    Authors in alphabetical order (major contribution(s) in parenthesis):

  Kestutis Aidas,           Vilnius University,           Lithuania   (QM/MM)
  Celestino Angeli,         University of Ferrara,        Italy       (NEVPT2)
  Keld L. Bak,              UNI-C,                        Denmark     (AOSOPPA, non-adiabatic coupling, magnetic properties)
  Vebjoern Bakken,          University of Oslo,           Norway      (DALTON; geometry optimizer, symmetry detection)
  Radovan Bast,             UiT The Arctic U. of Norway,  Norway      (DALTON installation and execution frameworks)
  Pablo Baudin,             University of Valencia,       Spain       (Cholesky excitation energies)
  Linus Boman,              NTNU,                         Norway      (Cholesky decomposition and subsystems)
  Ove Christiansen,         Aarhus University,            Denmark     (CC module)
  Renzo Cimiraglia,         University of Ferrara,        Italy       (NEVPT2)
  Sonia Coriani,            Technical Univ. of Denmark,   Denmark     (CC module, MCD in RESPONS)
  Janusz Cukras,            University of Trieste,        Italy       (MChD in RESPONS)
  Paal Dahle,               University of Oslo,           Norway      (Parallelization)
  Erik K. Dalskov,          UNI-C,                        Denmark     (SOPPA)
  Thomas Enevoldsen,        Univ. of Southern Denmark,    Denmark     (SOPPA)
  Janus J. Eriksen,         Aarhus University,            Denmark     (Polarizable embedding model, TDA)
  Rasmus Faber,             University of Copenhagen,     Denmark     (Vib.avg. NMR with SOPPA, parallel AO-SOPPA)
  Tobias Fahleson,          KTH Stockholm,                Sweden      (Damped cubic response)
  Berta Fernandez,          U. of Santiago de Compostela, Spain       (doublet spin, ESR in RESPONS)
  Lara Ferrighi,            Aarhus University,            Denmark     (PCM Cubic response)
  Heike Fliegl,             University of Oslo,           Norway      (CCSD(R12))
  Luca Frediani,            UiT The Arctic U. of Norway,  Norway      (PCM)
  Bin Gao,                  UiT The Arctic U. of Norway,  Norway      (Gen1Int library)
  Christof Haettig,         Ruhr-University Bochum,       Germany     (CC module)
  Kasper Hald,              Aarhus University,            Denmark     (CC module)
  Asger Halkier,            Aarhus University,            Denmark     (CC module)
  Frederik Beyer Hansen,    University of Copenhagen,     Denmark     (Parallel AO-SOPPA)
  Erik D. Hedegaard,        Univ. of Southern Denmark,    Denmark     (Polarizable embedding model, QM/MM)
  Hanne Heiberg,            University of Oslo,           Norway      (geometry analysis, selected one-electron integrals)
  Trygve Helgaker,          University of Oslo,           Norway      (DALTON; ABACUS, ERI, DFT modules, London, and much more)
  Alf Christian Hennum,     University of Oslo,           Norway      (Parity violation)
  Hinne Hettema,            University of Auckland,       New Zealand (quadratic response in RESPONS; SIRIUS supersymmetry)
  Eirik Hjertenaes,         NTNU,                         Norway      (Cholesky decomposition)
  Pi A. B. Haase,           University of Copenhagen,     Denmark     (Triplet AO-SOPPA)
  Maria Francesca Iozzi,    University of Oslo,           Norway      (RPA)
  Christoph Jacob           TU Braunschweig               Germany     (Frozen density embedding model)
  Brano Jansik              Technical Univ. of Ostrava    Czech Rep.  (DFT cubic response)
  Hans Joergen Aa. Jensen,  Univ. of Southern Denmark,    Denmark     (DALTON; SIRIUS, RESPONS, ABACUS modules, London, and much more)
  Dan Jonsson,              UiT The Arctic U. of Norway,  Norway      (cubic response in RESPONS module)
  Poul Joergensen,          Aarhus University,            Denmark     (RESPONS, ABACUS, and CC modules)
  Maciej Kaminski,          University of Warsaw,         Poland      (CPPh in RESPONS)
  Joanna Kauczor,           Linkoeping University,        Sweden      (Complex polarization propagator (CPP) module)
  Sheela Kirpekar,          Univ. of Southern Denmark,    Denmark     (Mass-velocity & Darwin integrals)
  Wim Klopper,              KIT Karlsruhe,                Germany     (R12 code in CC, SIRIUS, and ABACUS modules)
  Stefan Knecht,            ETH Zurich,                   Switzerland (Parallel CI and MCSCF)
  Rika Kobayashi,           Australian National Univ.,    Australia   (DIIS in CC, London in MCSCF)
  Henrik Koch,              NTNU,                         Norway      (CC module, Cholesky decomposition)
  Jacob Kongsted,           Univ. of Southern Denmark,    Denmark     (Polarizable embedding model, QM/MM)
  Andrea Ligabue,           University of Modena,         Italy       (CTOCD, AOSOPPA)
  Nanna H. List             Univ. of Southern Denmark,    Denmark     (Polarizable embedding model)
  Ola B. Lutnaes,           University of Oslo,           Norway      (DFT Hessian)
  Juan I. Melo,             University of Buenos Aires,   Argentina   (LRESC, Relativistic Effects on NMR Shieldings)
  Kurt V. Mikkelsen,        University of Copenhagen,     Denmark     (MC-SCRF and QM/MM)
  Rolf H. Myhre,            NTNU,                         Norway      (Subsystems and CC3)
  Christian Neiss,          Univ. Erlangen-Nuernberg,     Germany     (CCSD(R12))
  Christian B. Nielsen,     University of Copenhagen,     Denmark     (QM/MM)
  Patrick Norman,           KTH Stockholm,                Sweden      (Cubic response and complex frequency response in RESPONS)
  Jeppe Olsen,              Aarhus University,            Denmark     (SIRIUS CI/density modules)
  Jogvan Magnus H. Olsen,   Univ. of Southern Denmark,    Denmark     (Polarizable embedding model, QM/MM)
  Anders Osted,             Copenhagen University,        Denmark     (QM/MM)
  Martin J. Packer,         University of Sheffield,      UK          (SOPPA)
  Filip Pawlowski,          Kazimierz Wielki University,  Poland      (CC3)
  Morten N. Pedersen,       Univ. of Southern Denmark,    Denmark     (Polarizable embedding model)
  Thomas B. Pedersen,       University of Oslo,           Norway      (Cholesky decomposition)
  Patricio F. Provasi,      University of Northeastern,   Argentina   (Analysis of coupling constants in localized orbitals)
  Zilvinas Rinkevicius,     KTH Stockholm,                Sweden      (open-shell DFT, ESR)
  Elias Rudberg,            KTH Stockholm,                Sweden      (DFT grid and basis info)
  Torgeir A. Ruden,         University of Oslo,           Norway      (Numerical derivatives in ABACUS)
  Kenneth Ruud,             UiT The Arctic U. of Norway,  Norway      (DALTON; ABACUS magnetic properties and much more)
  Pawel Salek,              KTH Stockholm,                Sweden      (DALTON; DFT code)
  Claire C. M. Samson       University of Karlsruhe       Germany     (Boys localization, r12 integrals in ERI)
  Alfredo Sanchez de Meras, University of Valencia,       Spain       (CC module, Cholesky decomposition)
  Trond Saue,               Paul Sabatier University,     France      (direct Fock matrix construction)
  Stephan P. A. Sauer,      University of Copenhagen,     Denmark     (SOPPA(CCSD), SOPPA prop., AOSOPPA, vibrational g-factors)
  Andre S. P. Gomes,        CNRS/Universite de Lille,     France      (Frozen density embedding model)
  Bernd Schimmelpfennig,    Forschungszentrum Karlsruhe,  Germany     (AMFI module)
  Kristian Sneskov,         Aarhus University,            Denmark     (Polarizable embedding model, QM/MM)
  Arnfinn H. Steindal,      UiT The Arctic U. of Norway,  Norway      (parallel QM/MM, Polarizable embedding model)
  Casper Steinmann,         Univ. of Southern Denmark,    Denmark     (QFIT, Polarizable embedding model)
  K. O. Sylvester-Hvid,     University of Copenhagen,     Denmark     (MC-SCRF)
  Peter R. Taylor,          VLSCI/Univ. of Melbourne,     Australia   (Symmetry handling ABACUS, integral transformation)
  Andrew M. Teale,          University of Nottingham,     England     (DFT-AC, DFT-D)
  David P. Tew,             University of Bristol,        England     (CCSD(R12))
  Olav Vahtras,             KTH Stockholm,                Sweden      (triplet response, spin-orbit, ESR, TDDFT, open-shell DFT)
  Lucas Visscher,           Vrije Universiteit Amsterdam, Netherlands (Frozen density embedding model)
  David J. Wilson,          La Trobe University,          Australia   (DFT Hessian and DFT magnetizabilities)
  Hans Agren,               KTH Stockholm,                Sweden      (SIRIUS module, RESPONS, MC-SCRF solvation model)
 --------------------------------------------------------------------------------

     Date and time (Linux)  : Tue Jan  7 14:27:18 2020
     Host name              : s04p24.deic.sdu.dk                      

 * Work memory size             :   307200000 =  2.289 gigabytes.

 * Directories for basis set searches:
   1) /home/salvatore/JB_proj/reference_probes/RhB/2PA
   2) /gpfs/gss1/work/sdujk/reinholdt/Programs/dalton/master/basis


Compilation information
-----------------------

 Who compiled             | reinholdt
 Host                     | fe2.deic.sdu.dk
 System                   | Linux-3.10.0-327.36.3.el7.x86_64
 CMake generator          | Unix Makefiles
 Processor                | x86_64
 64-bit integers          | OFF
 MPI                      | ON
 Fortran compiler         | /opt/sys/apps/intel/2018.05/impi_latest/intel64/bi
                          | n/mpifc
 Fortran compiler version | unknown
 C compiler               | /opt/sys/apps/intel/2018.05/impi_latest/intel64/bi
                          | n/mpicc
 C compiler version       | icc (ICC) 18.0.3 20180410
 C++ compiler             | /opt/sys/apps/intel/2018.05/impi_latest/intel64/bi
                          | n/mpicxx
 C++ compiler version     | unknown
 Static linking           | OFF
 Last Git revision        | 9a1bab874ade5dd6e1a27bbace3e0548921a4fbf
 Git branch               | master
 Configuration time       | 2019-12-13 14:07:10.003619

 * MPI parallel run using 48 processes.


   Content of the .dal input file
 ----------------------------------

**DALTON INPUT
.DIRECT
.RUN RESPONSE
**WAVE FUNCTIONS
.DFT
CAMB3LYP alpha=0.19 beta=0.81 mu=0.330
**RESPONSE
*QUADRATIC
.SINGLE
.DIPLEN
.TWO-PHOTON
.ROOTS
1
**END OF


   Content of the .mol file
 ----------------------------

BASIS
6-311++G**
../1PA/RhB.log
Generated by Open Babel. Check overall charge below.
AtomTypes=14 Charge=1 NoSymmetry Angstrom
Charge=6.0 Atoms=6
C             1.7035120000  -12.4437560000    0.3146780000
C             0.4715730000  -12.5940600000   -0.4122690000
C            -0.2155310000  -11.4056240000   -0.7652730000
C             2.2076610000  -11.2115760000    0.6197070000
C             1.5448310000  -10.0080690000    0.2435810000
C             0.3121280000  -10.1736280000   -0.4491340000
Charge=8.0 Atoms=1
O            -0.4198820000   -9.0905320000   -0.8233690000
Charge=6.0 Atoms=13
C             2.0026730000   -8.7051650000    0.5397020000
C             3.2854030000   -8.5013200000    1.2753830000
C             3.3224600000   -7.9770180000    2.5832370000
C             4.5547980000   -7.7265030000    3.1956870000
C             5.7448910000   -8.0172790000    2.5381380000
C             5.7132150000   -8.5430680000    1.2481030000
C             4.4929660000   -8.7780750000    0.6210400000
C             1.2375580000   -7.6022210000    0.1200070000
C             0.0059110000   -7.8238270000   -0.5631720000
C            -0.8133910000   -6.8049490000   -0.9885360000
C            -0.4476570000   -5.4516970000   -0.7683790000
C             0.8011770000   -5.2118190000   -0.0949060000
C             1.5977120000   -6.2370010000    0.3194150000
Charge=7.0 Atoms=1
N            -1.2276820000   -4.4267440000   -1.1838530000
Charge=6.0 Atoms=2
C            -2.5163000000   -4.6709890000   -1.8582920000
C            -3.6816770000   -4.9756050000   -0.9112760000
Charge=7.0 Atoms=1
N            -0.0046550000  -13.8185590000   -0.7460020000
Charge=6.0 Atoms=3
C            -1.2920750000  -13.9710020000   -1.4483650000
C            -2.5250450000  -13.8868140000   -0.5423200000
C             2.0837710000   -7.6221310000    3.3647100000
Charge=1.0 Atoms=18
H            -1.1628560000  -11.4233160000   -1.2810930000
H             3.1410200000  -11.1446850000    1.1643490000
H             4.5649240000   -7.3028890000    4.1926380000
H             6.6925240000   -7.8277070000    3.0277870000
H             6.6364100000   -8.7599820000    0.7238320000
H             4.4719960000   -9.1559040000   -0.3947980000
H            -1.7343230000   -7.0772770000   -1.4798990000
H             2.5291930000   -6.0087230000    0.8199840000
H            -2.3849040000   -5.4792740000   -2.5813120000
H            -2.7392950000   -3.7780580000   -2.4429940000
H            -4.5851160000   -5.1678060000   -1.4956150000
H            -3.4843460000   -5.8534770000   -0.2927930000
H            -3.8850960000   -4.1336390000   -0.2474760000
H            -1.2660280000  -14.9411250000   -1.9454220000
H            -1.3473640000  -13.2256160000   -2.2453860000
H            -3.4298080000  -13.9877490000   -1.1471190000
H            -2.5272690000  -14.6865650000    0.2001470000
H            -2.5773570000  -12.9335170000   -0.0123980000
Charge=6.0 Atoms=2
C            -0.8551360000   -3.0185940000   -0.9386370000
C            -1.2016910000   -2.5039500000    0.4616460000
Charge=1.0 Atoms=5
H            -1.3746760000   -2.4243610000   -1.6909390000
H             0.2099750000   -2.8956890000   -1.1432700000
H            -2.2773690000   -2.5367820000    0.6434150000
H            -0.8771050000   -1.4647540000    0.5580230000
H            -0.7084690000   -3.0860400000    1.2428720000
Charge=6.0 Atoms=2
C             0.7219630000  -15.0550400000   -0.4003880000
C             0.4470960000  -15.5835010000    1.0107830000
Charge=1.0 Atoms=7
H            -0.6044130000  -15.8455410000    1.1410920000
H             0.7099870000  -14.8505220000    1.7766880000
H             1.0404170000  -16.4845370000    1.1860440000
H             1.7903290000  -14.8885590000   -0.5492440000
H             0.4315290000  -15.8041560000   -1.1381320000
H             1.1242750000   -4.2012270000    0.1009360000
H             2.2481360000  -13.3164160000    0.6411030000
Charge=8.0 Atoms=2
O             1.9352740000   -6.5610450000    3.9028700000
O             1.1189140000   -8.5750570000    3.4503150000
Charge=1.0 Atoms=1
H             1.4261030000   -9.4132510000    3.0824890000


       *******************************************************************
       *********** Output from DALTON general input processing ***********
       *******************************************************************

 --------------------------------------------------------------------------------
   Overall default print level:    0
   Print level for DALTON.STAT:    1

    Parallel calculation using MPI
    AO-direct calculation (in sections where implemented)
    HERMIT 1- and 2-electron integral sections will be executed
    "Old" integral transformation used (limited to max 255 basis functions)
    Wave function sections will be executed (SIRIUS module)
    Dynamic molecular response properties section will be executed (RESPONSE module)
 --------------------------------------------------------------------------------


   ****************************************************************************
   *************** Output of molecule and basis set information ***************
   ****************************************************************************


    The two title cards from your ".mol" input:
    ------------------------------------------------------------------------
 1: ../1PA/RhB.log                                                          
 2: Generated by Open Babel. Check overall charge below.                    
    ------------------------------------------------------------------------

  Coordinates are entered in Angstrom and converted to atomic units.
          - Conversion factor : 1 bohr = 0.52917721 A

  Atomic type no.    1
  --------------------
  Nuclear charge:   6.00000
  Number of symmetry independent centers:    6
  Number of basis sets to read;    2
  Basis set file used for this atomic type with Z =   6 :
     "/gpfs/gss1/work/sdujk/reinholdt/Programs/dalton/master/basis/6-311++G**"

  Info about the basis set file: your basis has no documentation.
  Basis set: 6-311++G**                                                                      

  Atomic type no.    2
  --------------------
  Nuclear charge:   8.00000
  Number of symmetry independent centers:    1
  Number of basis sets to read;    2
  Basis set file used for this atomic type with Z =   8 :
     "/gpfs/gss1/work/sdujk/reinholdt/Programs/dalton/master/basis/6-311++G**"

  Info about the basis set file: your basis has no documentation.
  Basis set: 6-311++G**                                                                      

  Atomic type no.    3
  --------------------
  Nuclear charge:   6.00000
  Number of symmetry independent centers:   13
  Number of basis sets to read;    2
  Basis set file used for this atomic type with Z =   6 :
     "/gpfs/gss1/work/sdujk/reinholdt/Programs/dalton/master/basis/6-311++G**"

  Info about the basis set file: your basis has no documentation.
  Basis set: 6-311++G**                                                                      

  Atomic type no.    4
  --------------------
  Nuclear charge:   7.00000
  Number of symmetry independent centers:    1
  Number of basis sets to read;    2
  Basis set file used for this atomic type with Z =   7 :
     "/gpfs/gss1/work/sdujk/reinholdt/Programs/dalton/master/basis/6-311++G**"

  Info about the basis set file: your basis has no documentation.
  Basis set: 6-311++G**                                                                      

  Atomic type no.    5
  --------------------
  Nuclear charge:   6.00000
  Number of symmetry independent centers:    2
  Number of basis sets to read;    2
  Basis set file used for this atomic type with Z =   6 :
     "/gpfs/gss1/work/sdujk/reinholdt/Programs/dalton/master/basis/6-311++G**"

  Info about the basis set file: your basis has no documentation.
  Basis set: 6-311++G**                                                                      

  Atomic type no.    6
  --------------------
  Nuclear charge:   7.00000
  Number of symmetry independent centers:    1
  Number of basis sets to read;    2
  Basis set file used for this atomic type with Z =   7 :
     "/gpfs/gss1/work/sdujk/reinholdt/Programs/dalton/master/basis/6-311++G**"

  Info about the basis set file: your basis has no documentation.
  Basis set: 6-311++G**                                                                      

  Atomic type no.    7
  --------------------
  Nuclear charge:   6.00000
  Number of symmetry independent centers:    3
  Number of basis sets to read;    2
  Basis set file used for this atomic type with Z =   6 :
     "/gpfs/gss1/work/sdujk/reinholdt/Programs/dalton/master/basis/6-311++G**"

  Info about the basis set file: your basis has no documentation.
  Basis set: 6-311++G**                                                                      

  Atomic type no.    8
  --------------------
  Nuclear charge:   1.00000
  Number of symmetry independent centers:   18
  Number of basis sets to read;    2
  Basis set file used for this atomic type with Z =   1 :
     "/gpfs/gss1/work/sdujk/reinholdt/Programs/dalton/master/basis/6-311++G**"

  Info about the basis set file: your basis has no documentation.
  Basis set: 6-311++G**                                                                      

  Atomic type no.    9
  --------------------
  Nuclear charge:   6.00000
  Number of symmetry independent centers:    2
  Number of basis sets to read;    2
  Basis set file used for this atomic type with Z =   6 :
     "/gpfs/gss1/work/sdujk/reinholdt/Programs/dalton/master/basis/6-311++G**"

  Info about the basis set file: your basis has no documentation.
  Basis set: 6-311++G**                                                                      

  Atomic type no.   10
  --------------------
  Nuclear charge:   1.00000
  Number of symmetry independent centers:    5
  Number of basis sets to read;    2
  Basis set file used for this atomic type with Z =   1 :
     "/gpfs/gss1/work/sdujk/reinholdt/Programs/dalton/master/basis/6-311++G**"

  Info about the basis set file: your basis has no documentation.
  Basis set: 6-311++G**                                                                      

  Atomic type no.   11
  --------------------
  Nuclear charge:   6.00000
  Number of symmetry independent centers:    2
  Number of basis sets to read;    2
  Basis set file used for this atomic type with Z =   6 :
     "/gpfs/gss1/work/sdujk/reinholdt/Programs/dalton/master/basis/6-311++G**"

  Info about the basis set file: your basis has no documentation.
  Basis set: 6-311++G**                                                                      

  Atomic type no.   12
  --------------------
  Nuclear charge:   1.00000
  Number of symmetry independent centers:    7
  Number of basis sets to read;    2
  Basis set file used for this atomic type with Z =   1 :
     "/gpfs/gss1/work/sdujk/reinholdt/Programs/dalton/master/basis/6-311++G**"

  Info about the basis set file: your basis has no documentation.
  Basis set: 6-311++G**                                                                      

  Atomic type no.   13
  --------------------
  Nuclear charge:   8.00000
  Number of symmetry independent centers:    2
  Number of basis sets to read;    2
  Basis set file used for this atomic type with Z =   8 :
     "/gpfs/gss1/work/sdujk/reinholdt/Programs/dalton/master/basis/6-311++G**"

  Info about the basis set file: your basis has no documentation.
  Basis set: 6-311++G**                                                                      

  Atomic type no.   14
  --------------------
  Nuclear charge:   1.00000
  Number of symmetry independent centers:    1
  Number of basis sets to read;    2
  Basis set file used for this atomic type with Z =   1 :
     "/gpfs/gss1/work/sdujk/reinholdt/Programs/dalton/master/basis/6-311++G**"

  Info about the basis set file: your basis has no documentation.
  Basis set: 6-311++G**                                                                      


                         SYMGRP: Point group information
                         -------------------------------

@    Point group: C1 


                                 Isotopic Masses
                                 ---------------

                           C          12.000000
                           C          12.000000
                           C          12.000000
                           C          12.000000
                           C          12.000000
                           C          12.000000
                           O          15.994915
                           C          12.000000
                           C          12.000000
                           C          12.000000
                           C          12.000000
                           C          12.000000
                           C          12.000000
                           C          12.000000
                           C          12.000000
                           C          12.000000
                           C          12.000000
                           C          12.000000
                           C          12.000000
                           C          12.000000
                           N          14.003074
                           C          12.000000
                           C          12.000000
                           N          14.003074
                           C          12.000000
                           C          12.000000
                           C          12.000000
                           H           1.007825
                           H           1.007825
                           H           1.007825
                           H           1.007825
                           H           1.007825
                           H           1.007825
                           H           1.007825
                           H           1.007825
                           H           1.007825
                           H           1.007825
                           H           1.007825
                           H           1.007825
                           H           1.007825
                           H           1.007825
                           H           1.007825
                           H           1.007825
                           H           1.007825
                           H           1.007825
                           C          12.000000
                           C          12.000000
                           H           1.007825
                           H           1.007825
                           H           1.007825
                           H           1.007825
                           H           1.007825
                           C          12.000000
                           C          12.000000
                           H           1.007825
                           H           1.007825
                           H           1.007825
                           H           1.007825
                           H           1.007825
                           H           1.007825
                           H           1.007825
                           O          15.994915
                           O          15.994915
                           H           1.007825

                       Total mass:   443.233468 amu
                       Natural abundance:  71.966 %

 Center-of-mass coordinates (a.u.):    1.574783  -16.556603    0.757262


  Atoms and basis sets
  --------------------

  Number of atom types :   14
  Total number of atoms:   64

  Basis set used is "6-311++G**" from the basis set library.

  label    atoms   charge   prim   cont     basis
  ----------------------------------------------------------------------
  C           6    6.0000    35    22      [12s6p1d|5s4p1d]                                   
  O           1    8.0000    35    22      [12s6p1d|5s4p1d]                                   
  C          13    6.0000    35    22      [12s6p1d|5s4p1d]                                   
  N           1    7.0000    35    22      [12s6p1d|5s4p1d]                                   
  C           2    6.0000    35    22      [12s6p1d|5s4p1d]                                   
  N           1    7.0000    35    22      [12s6p1d|5s4p1d]                                   
  C           3    6.0000    35    22      [12s6p1d|5s4p1d]                                   
  H          18    1.0000     9     7      [6s1p|4s1p]                                        
  C           2    6.0000    35    22      [12s6p1d|5s4p1d]                                   
  H           5    1.0000     9     7      [6s1p|4s1p]                                        
  C           2    6.0000    35    22      [12s6p1d|5s4p1d]                                   
  H           7    1.0000     9     7      [6s1p|4s1p]                                        
  O           2    8.0000    35    22      [12s6p1d|5s4p1d]                                   
  H           1    1.0000     9     7      [6s1p|4s1p]                                        
  ----------------------------------------------------------------------
  total:     64  237.0000  1434   943
  ----------------------------------------------------------------------
  Spherical harmonic basis used.

  Threshold for neglecting AO integrals:  1.00D-12

  Max    interatomic separation is   15.1547 Angstrom (   28.6382 Bohr)
  between atoms   57 and   51, "H     " and "H     ".

  Min HX interatomic separation is    0.9655 Angstrom (    1.8246 Bohr)

  Min YX interatomic separation is    1.1990 Angstrom (    2.2658 Bohr)


  Bond distances (Angstrom):
  --------------------------

                  atom 1     atom 2       distance
                  ------     ------       --------
  bond distance:  C          C            1.438303
  bond distance:  C          C            1.417429
  bond distance:  C          C            1.365824
  bond distance:  C          C            1.424515
  bond distance:  C          C            1.377019
  bond distance:  C          C            1.423664
  bond distance:  O          C            1.359775
  bond distance:  C          C            1.412397
  bond distance:  C          C            1.492707
  bond distance:  C          C            1.409520
  bond distance:  C          C            1.398753
  bond distance:  C          C            1.390411
  bond distance:  C          C            1.393430
  bond distance:  C          C            1.401059
  bond distance:  C          C            1.391921
  bond distance:  C          C            1.406425
  bond distance:  C          O            1.361449
  bond distance:  C          C            1.425762
  bond distance:  C          C            1.374883
  bond distance:  C          C            1.418986
  bond distance:  C          C            1.438991
  bond distance:  C          C            1.425938
  bond distance:  C          C            1.362765
  bond distance:  N          C            1.353361
  bond distance:  C          N            1.474808
  bond distance:  C          C            1.532232
  bond distance:  N          C            1.355569
  bond distance:  C          N            1.474450
  bond distance:  C          C            1.532390
  bond distance:  C          C            1.506982
  bond distance:  H          C            1.078799
  bond distance:  H          C            1.082713
  bond distance:  H          C            1.083265
  bond distance:  H          C            1.083375
  bond distance:  H          C            1.083605
  bond distance:  H          C            1.084030
  bond distance:  H          C            1.078757
  bond distance:  H          C            1.081821
  bond distance:  H          C            1.092404
  bond distance:  H          C            1.090380
  bond distance:  H          C            1.092975
  bond distance:  H          C            1.091842
  bond distance:  H          C            1.091291
  bond distance:  H          C            1.090359
  bond distance:  H          C            1.092657
  bond distance:  H          C            1.092962
  bond distance:  H          C            1.091267
  bond distance:  H          C            1.091938
  bond distance:  C          N            1.477094
  bond distance:  C          C            1.531585
  bond distance:  H          C            1.090410
  bond distance:  H          C            1.091532
  bond distance:  H          C            1.091422
  bond distance:  H          C            1.092965
  bond distance:  H          C            1.091976
  bond distance:  C          N            1.475232
  bond distance:  C          C            1.531740
  bond distance:  H          C            1.091474
  bond distance:  H          C            1.092236
  bond distance:  H          C            1.092983
  bond distance:  H          C            1.091458
  bond distance:  H          C            1.090776
  bond distance:  H          C            1.078908
  bond distance:  H          C            1.079215
  bond distance:  O          C            1.198988
  bond distance:  O          C            1.358803
  bond distance:  H          O            0.965521


  Bond angles (degrees):
  ----------------------

                  atom 1     atom 2     atom 3         angle
                  ------     ------     ------         -----
  bond angle:     C          C          C            121.554
  bond angle:     C          C          H            120.041
  bond angle:     C          C          H            118.402
  bond angle:     C          C          C            116.966
  bond angle:     C          C          N            121.314
  bond angle:     C          C          N            121.720
  bond angle:     C          C          C            120.478
  bond angle:     C          C          H            122.073
  bond angle:     C          C          H            117.447
  bond angle:     C          C          C            122.105
  bond angle:     C          C          H            119.096
  bond angle:     C          C          H            118.799
  bond angle:     C          C          C            115.665
  bond angle:     C          C          C            124.971
  bond angle:     C          C          C            119.338
  bond angle:     C          C          C            123.199
  bond angle:     C          C          O            116.306
  bond angle:     C          C          O            120.491
  bond angle:     C          O          C            121.341
  bond angle:     C          C          C            120.522
  bond angle:     C          C          C            118.980
  bond angle:     C          C          C            120.495
  bond angle:     C          C          C            122.052
  bond angle:     C          C          C            118.914
  bond angle:     C          C          C            118.958
  bond angle:     C          C          C            119.739
  bond angle:     C          C          C            123.172
  bond angle:     C          C          C            117.061
  bond angle:     C          C          C            120.635
  bond angle:     C          C          H            118.766
  bond angle:     C          C          H            120.598
  bond angle:     C          C          C            119.820
  bond angle:     C          C          H            119.891
  bond angle:     C          C          H            120.288
  bond angle:     C          C          C            120.047
  bond angle:     C          C          H            120.271
  bond angle:     C          C          H            119.678
  bond angle:     C          C          C            120.787
  bond angle:     C          C          H            119.329
  bond angle:     C          C          H            119.866
  bond angle:     C          C          C            119.409
  bond angle:     C          C          C            124.868
  bond angle:     C          C          C            115.722
  bond angle:     O          C          C            120.422
  bond angle:     O          C          C            116.359
  bond angle:     C          C          C            123.219
  bond angle:     C          C          C            120.341
  bond angle:     C          C          H            117.553
  bond angle:     C          C          H            122.104
  bond angle:     C          C          C            117.083
  bond angle:     C          C          N            121.740
  bond angle:     C          C          N            121.173
  bond angle:     C          C          C            121.611
  bond angle:     C          C          H            120.066
  bond angle:     C          C          H            118.322
  bond angle:     C          C          C            122.012
  bond angle:     C          C          H            118.961
  bond angle:     C          C          H            119.026
  bond angle:     C          N          C            121.236
  bond angle:     C          N          C            121.713
  bond angle:     C          N          C            117.012
  bond angle:     N          C          C            114.509
  bond angle:     N          C          H            108.670
  bond angle:     N          C          H            106.756
  bond angle:     C          C          H            110.699
  bond angle:     C          C          H            109.797
  bond angle:     H          C          H            105.999
  bond angle:     C          C          H            109.463
  bond angle:     C          C          H            111.869
  bond angle:     C          C          H            111.367
  bond angle:     H          C          H            108.110
  bond angle:     H          C          H            107.866
  bond angle:     H          C          H            108.027
  bond angle:     C          N          C            121.159
  bond angle:     C          N          C            121.763
  bond angle:     C          N          C            117.066
  bond angle:     N          C          C            114.533
  bond angle:     N          C          H            106.755
  bond angle:     N          C          H            108.731
  bond angle:     C          C          H            109.733
  bond angle:     C          C          H            110.677
  bond angle:     H          C          H            106.000
  bond angle:     C          C          H            109.500
  bond angle:     C          C          H            111.325
  bond angle:     C          C          H            111.929
  bond angle:     H          C          H            107.886
  bond angle:     H          C          H            108.030
  bond angle:     H          C          H            108.031
  bond angle:     C          C          O            122.886
  bond angle:     C          C          O            116.819
  bond angle:     O          C          O            120.293
  bond angle:     N          C          C            114.522
  bond angle:     N          C          H            106.548
  bond angle:     N          C          H            108.804
  bond angle:     C          C          H            109.868
  bond angle:     C          C          H            110.754
  bond angle:     H          C          H            105.916
  bond angle:     C          C          H            111.418
  bond angle:     C          C          H            109.446
  bond angle:     C          C          H            111.887
  bond angle:     H          C          H            107.855
  bond angle:     H          C          H            108.058
  bond angle:     H          C          H            108.036
  bond angle:     N          C          C            114.622
  bond angle:     N          C          H            108.804
  bond angle:     N          C          H            106.620
  bond angle:     C          C          H            110.727
  bond angle:     C          C          H            109.779
  bond angle:     H          C          H            105.851
  bond angle:     C          C          H            111.450
  bond angle:     C          C          H            111.797
  bond angle:     C          C          H            109.556
  bond angle:     H          C          H            108.015
  bond angle:     H          C          H            107.813
  bond angle:     H          C          H            108.067
  bond angle:     C          O          H            111.032




 Principal moments of inertia (u*A**2) and principal axes
 --------------------------------------------------------

   IA    3334.691495         -0.087120    0.996161    0.008555
   IB    5836.966794          0.855629    0.070426    0.512776
   IC    8249.650105         -0.510205   -0.051993    0.858480


 Rotational constants
 --------------------

               A                   B                   C

            151.5520             86.5825             61.2607 MHz
            0.005055            0.002888            0.002043 cm-1


@  Nuclear repulsion energy : 3328.199374864682 Hartree


                     .---------------------------------------.
                     | Starting in Integral Section (HERMIT) |
                     `---------------------------------------'



 ***************************************************************************************
 ****************** Output from **INTEGRALS input processing (HERMIT) ******************
 ***************************************************************************************


 - Using defaults, no **INTEGRALS input found

 Default print level:        1

 Calculation of one-electron Hamiltonian integrals.

 Center of mass  (bohr):      1.574783479592    -16.556603260490      0.757262218584
 Operator center (bohr):      0.000000000000      0.000000000000      0.000000000000
 Gauge origin    (bohr):      0.000000000000      0.000000000000      0.000000000000
 Dipole origin   (bohr):      0.000000000000      0.000000000000      0.000000000000


     ************************************************************************
     ************************** Output from HERINT **************************
     ************************************************************************



                      Nuclear contribution to dipole moments
                      --------------------------------------

                 au               Debye          C m (/(10**-30)

      x    349.06244114       887.22817094      2959.47462074
      y  -3931.86815406     -9993.81136299    -33335.76644877
      z    168.24661037       427.64020068      1426.45416611


  Time used in ONEDRV     is       2.12 seconds
  Time used in HUCKEL     is       0.68 seconds
  Time used in OVERLAP    is       0.37 seconds
  Time used in POPOVLP    is       0.60 seconds
  Time used in R2         is       0.40 seconds
  Time used in R4         is       0.39 seconds
  Time used in DIPLEN     is       0.35 seconds
  Time used in QUADRUP    is       0.68 seconds
  Time used in KINENE     is       0.52 seconds
  Time used in GABGEN     is       1.28 seconds
  Total CPU  time used in HERMIT:   7.40 seconds
  Total wall time used in HERMIT:   8.06 seconds


                        .----------------------------------.
                        | End of Integral Section (HERMIT) |
                        `----------------------------------'



                   .--------------------------------------------.
                   | Starting in Wave Function Section (SIRIUS) |
                   `--------------------------------------------'



@ Primary orbitals are deleted during canonical orthonormalization
@   because of detected numerical linear dependence or too large coefficients.
@ Eigenvalue threshold for num. lin. dep. =  1.00D-06

@  14 MO components are deleted in symmetry    1
 Overlap eigenvalues of the deleted orbitals:
  8.12D-07  7.36D-07  4.53D-07  4.12D-07  2.82D-07
  2.58D-07  1.62D-07  1.43D-07  8.19D-08  6.58D-08
  1.96D-08  1.88D-08  9.51D-09  8.82D-09

 Max MO coeff. of last deleted MO & limit:  3.08D+02  1.00D+03

WARNING: Orbitals have been deleted because of numerical
   linear dependence although not requested in input.

 *** Output from Huckel module :

     Using EWMO model:          T
     Using EHT  model:          F
     Number of Huckel orbitals each symmetry:  196

 EWMO - Energy Weighted Maximum Overlap - is a Huckel type method,
        which normally is better than Extended Huckel Theory.
 Reference: Linderberg and Ohrn, Propagators in Quantum Chemistry (Wiley, 1973)

 Huckel EWMO eigenvalues for symmetry :  1
          -20.685913     -20.685686     -20.684309     -15.675000     -15.674989
          -11.367515     -11.365925     -11.365537     -11.360645     -11.357354
          -11.356451     -11.356022     -11.355408     -11.355328     -11.353881
          -11.353073     -11.352461     -11.352295     -11.351783     -11.350400
          -11.348781     -11.348532     -11.348309     -11.348133     -11.347729
          -11.347563     -11.347281     -11.346772     -11.346442     -11.345793
          -11.344516     -11.344273     -11.343989      -2.154477      -2.116449
           -2.098941      -2.014300      -1.882795      -1.830905      -1.757469
           -1.692174      -1.661120      -1.644686      -1.523983      -1.457763
           -1.408227      -1.395546      -1.382861      -1.326045      -1.273198
           -1.256748      -1.151828      -1.113017      -1.082226      -1.060743
           -1.050029      -1.030152      -0.995593      -0.978989      -0.956071
           -0.917815      -0.911280      -0.869539      -0.865950      -0.837190
           -0.809296      -0.796088      -0.787373      -0.749606      -0.740354
           -0.734999      -0.702992      -0.701548      -0.675088      -0.672086
           -0.668880      -0.665082      -0.657205      -0.651318      -0.641285
           -0.623182      -0.618637      -0.605147      -0.590676      -0.586241
           -0.577593      -0.575260      -0.569165      -0.560960      -0.548604
           -0.545533      -0.539372      -0.529204      -0.525412      -0.518875
           -0.505016      -0.504761      -0.495069      -0.487878      -0.478896
           -0.474017      -0.467301      -0.464147      -0.461488      -0.452169
           -0.444184      -0.441939      -0.431261      -0.426172      -0.425240
           -0.423117      -0.410126      -0.393610      -0.393394      -0.382404
           -0.371964      -0.364170      -0.349949      -0.292327      -0.276436
           -0.247316      -0.238227      -0.237807      -0.236658      -0.235152
           -0.210252      -0.207609      -0.205495      -0.187902      -0.187499
           -0.181337      -0.178150      -0.167115      -0.164349      -0.162050
           -0.161118      -0.160111      -0.142291      -0.141525      -0.140573
           -0.138956      -0.137725      -0.137275      -0.135017      -0.134951
           -0.133177      -0.131747      -0.128694      -0.128215      -0.127333
           -0.125088      -0.125065      -0.124524      -0.124445      -0.123361
           -0.122214      -0.121867      -0.121099      -0.120882      -0.120261
           -0.118608      -0.117980      -0.117622      -0.117541      -0.116322
           -0.115336      -0.115007      -0.114118      -0.112931      -0.112655
           -0.110913      -0.109955      -0.109874      -0.109271      -0.106977
           -0.106799      -0.105954      -0.105469      -0.101612      -0.101331
           -0.099877      -0.098175      -0.096034      -0.095691      -0.095271
           -0.095255      -0.093312      -0.093020      -0.088269      -0.087110
           -0.082569      -0.082178      -0.080884      -0.076373      -0.075700
           -0.074985

 **********************************************************************
 *SIRIUS* a direct, restricted step, second order MCSCF program       *
 **********************************************************************

 
     Date and time (Linux)  : Tue Jan  7 14:28:09 2020
     Host name              : s04p24.deic.sdu.dk                      

 Title lines from ".mol" input file:
     ../1PA/RhB.log                                                          
     Generated by Open Babel. Check overall charge below.                    

 Print level on unit LUPRI =   2 is   0
 Print level on unit LUW4  =   2 is   5

@    Restricted, closed shell Kohn-Sham DFT calculation.

@    Time-dependent Kohn-Sham DFT calculation (TD-DFT).
 Fock matrices are calculated directly and in parallel without use of integrals on disk.

 Initial molecular orbitals are obtained according to
 ".MOSTART EWMO  " input option

     Wave function specification
     ============================
@    Wave function type        --- KS-DFT ---
@    Number of closed shell electrons         236
@    Number of electrons in active shells       0
@    Total charge of the molecule               1

@    Spin multiplicity and 2 M_S                1         0
@    Total number of symmetries                 1 (point group: C1 )
@    Reference state symmetry                   1 (irrep name : A  )
 
     This is a DFT calculation of type: Camb3lyp
 CAM-B3LYP w/ alpha=0.190 beta=0.810 mu=0.330 VwnWeight=0.190 LypWeight=0.810

     Orbital specifications
     ======================
@    Abelian symmetry species          All |    1
@                                          |  A  
                                       --- |  ---
@    Occupied SCF orbitals             118 |  118
@    Secondary orbitals                811 |  811
@    Total number of orbitals          929 |  929
@    Number of basis functions         943 |  943

     Optimization information
     ========================
@    Number of configurations                 1
@    Number of orbital rotations          95698
     ------------------------------------------
@    Total number of variables            95699

     Maximum number of Fock   iterations      0
     Maximum number of DIIS   iterations     60
     Maximum number of QC-SCF iterations     60
     Threshold for SCF convergence     1.00D-05
 
     This is a DFT calculation of type: Camb3lyp
 CAM-B3LYP w/ alpha=0.190 beta=0.810 mu=0.330 VwnWeight=0.190 LypWeight=0.810

    INFORMATION: Switched to "new" integral transformation (from 1988 ;-) )
    because more than 255 basis functions.


 ***********************************************
 ***** DIIS acceleration of SCF iterations *****
 ***********************************************

 C1-DIIS algorithm; max error vectors =    8

 Iter      Total energy        Error norm    Delta(E)  DIIS dim.
 -----------------------------------------------------------------------------
   1  Screening settings (-IFTHRS, JTDIIS, DIFDEN, times)   -9    1    F  9.96D+01  9.96D+01
      K-S energy, electrons, error :   -128.843025423469 236.0001628037    1.63D-04
@  1    -1414.25268423        9.03832D+00   -1.41D+03    1
      Virial theorem: -V/T =      2.014722
@    MULPOP   C      -0.10; C       0.24; C      -0.13; C       0.05; C      -0.14; C       0.75; O      -0.86; C       0.37; C       0.21; C       0.04; 
@             C       0.13; C      -0.05; C      -0.01; C       0.08; C      -0.16; C       0.75; C      -0.14; C       0.25; C      -0.10; C       0.08; 
@             N      -0.50; C       0.34; C       0.01; N      -0.50; C       0.34; C       0.01; C       1.18; H       0.02; H      -0.01; H      -0.02; 
@    MULPOP    dipole moment & components:     19.4219;        2.8720    -19.0475     -2.4812
   1  Level shift: doubly occupied orbital energies shifted by -2.00D-01
 -----------------------------------------------------------------------------
   2  Screening settings (-IFTHRS, JTDIIS, DIFDEN, times)   -9    2    F  1.04D+02  1.04D+02
      K-S energy, electrons, error :   -132.478068856175 236.0000963274    9.63D-05
@  2    -1417.98651694        4.95618D+00   -3.73D+00    2
      Virial theorem: -V/T =      1.999317
@    MULPOP   C      -0.14; C      -0.39; C      -0.11; C      -0.24; C      -0.14; C       0.25; O       0.48; C      -0.01; C      -0.08; C       0.10; 
@             C      -0.27; C      -0.09; C      -0.23; C      -0.33; C      -0.07; C       0.30; C      -0.10; C      -0.39; C      -0.14; C      -0.20; 
@             N       0.09; C      -0.46; C      -0.47; N       0.09; C      -0.47; C      -0.47; C      -1.37; H       0.28; H       0.20; H       0.28; 
@    MULPOP    dipole moment & components:     16.8319;       -2.4021    -16.6059     -1.3364
   2  Level shift: doubly occupied orbital energies shifted by -2.00D-01
 -----------------------------------------------------------------------------
   3  Screening settings (-IFTHRS, JTDIIS, DIFDEN, times)  -10    3    F  1.08D+02  1.07D+02
      K-S energy, electrons, error :   -132.425267791076 236.0000956143    9.56D-05
@  3    -1419.06512468        1.60211D+00   -1.08D+00    3
      Virial theorem: -V/T =      2.001157
@    MULPOP   C      -0.19; C      -0.47; C      -0.14; C      -0.36; C      -0.22; C       0.49; O      -0.04; C       0.44; C       0.25; C       0.46; 
@             C      -0.09; C      -0.27; C      -0.39; C      -0.38; C      -0.05; C       0.60; C      -0.14; C      -0.56; C      -0.16; C      -0.38; 
@             N       0.11; C      -0.32; C      -0.44; N       0.13; C      -0.33; C      -0.44; C      -0.41; H       0.25; H       0.21; H       0.25; 
@    MULPOP    dipole moment & components:     18.7491;       -0.6392    -18.6065     -2.2178
   3  Level shift: doubly occupied orbital energies shifted by -1.00D-01
 -----------------------------------------------------------------------------
   4  Screening settings (-IFTHRS, JTDIIS, DIFDEN, times)  -10    4    F  1.08D+02  1.07D+02
      K-S energy, electrons, error :   -131.859676749362 236.0000940672    9.41D-05
@  4    -1419.17082148        4.62696D-01   -1.06D-01    4
      Virial theorem: -V/T =      2.005136
@    MULPOP   C      -0.19; C      -0.46; C      -0.19; C      -0.42; C      -0.25; C       0.60; O       0.01; C       0.42; C       0.29; C       0.43; 
@             C      -0.04; C      -0.27; C      -0.39; C      -0.36; C      -0.12; C       0.71; C      -0.18; C      -0.58; C      -0.14; C      -0.40; 
@             N       0.18; C      -0.26; C      -0.41; N       0.19; C      -0.27; C      -0.40; C      -0.74; H       0.24; H       0.22; H       0.25; 
@    MULPOP    dipole moment & components:     18.3591;       -1.1467    -18.1469     -2.5358
   4  Level shift: doubly occupied orbital energies shifted by -5.00D-02
 -----------------------------------------------------------------------------
   5  Screening settings (-IFTHRS, JTDIIS, DIFDEN, times)  -11    5    F  1.11D+02  1.11D+02
      K-S energy, electrons, error :   -131.987230079291 236.0000932057    9.32D-05
@  5    -1419.18306698        1.51344D-01   -1.22D-02    5
      Virial theorem: -V/T =      2.004257
@    MULPOP   C      -0.21; C      -0.46; C      -0.19; C      -0.43; C      -0.26; C       0.59; O       0.02; C       0.46; C       0.30; C       0.45; 
@             C      -0.06; C      -0.28; C      -0.42; C      -0.38; C      -0.12; C       0.72; C      -0.18; C      -0.58; C      -0.16; C      -0.41; 
@             N       0.18; C      -0.29; C      -0.43; N       0.20; C      -0.30; C      -0.42; C      -0.69; H       0.25; H       0.23; H       0.26; 
@    MULPOP    dipole moment & components:     18.4624;       -1.2718    -18.2382     -2.5711
   5  Level shift: doubly occupied orbital energies shifted by -2.50D-02
 -----------------------------------------------------------------------------
   6  Screening settings (-IFTHRS, JTDIIS, DIFDEN, times)  -11    6    F  1.11D+02  1.11D+02
      K-S energy, electrons, error :   -132.021216181123 236.0000927057    9.27D-05
@  6    -1419.18439765        7.28037D-02   -1.33D-03    6
      Virial theorem: -V/T =      2.004026
@    MULPOP   C      -0.22; C      -0.45; C      -0.20; C      -0.44; C      -0.25; C       0.58; O       0.00; C       0.46; C       0.31; C       0.46; 
@             C      -0.06; C      -0.29; C      -0.42; C      -0.39; C      -0.11; C       0.71; C      -0.19; C      -0.56; C      -0.17; C      -0.41; 
@             N       0.17; C      -0.29; C      -0.42; N       0.19; C      -0.29; C      -0.42; C      -0.71; H       0.25; H       0.23; H       0.26; 
@    MULPOP    dipole moment & components:     18.3515;       -1.1912    -18.1353     -2.5433
   6  Level shift: doubly occupied orbital energies shifted by -1.25D-02
 -----------------------------------------------------------------------------
   7  Screening settings (-IFTHRS, JTDIIS, DIFDEN, times)  -12    7    F  1.14D+02  1.13D+02
      K-S energy, electrons, error :   -132.010894116673 236.0000925770    9.26D-05
@  7    -1419.18474277        1.84054D-02   -3.45D-04    7
      Virial theorem: -V/T =      2.004105
@    MULPOP   C      -0.23; C      -0.44; C      -0.20; C      -0.45; C      -0.25; C       0.58; O       0.01; C       0.45; C       0.31; C       0.46; 
@             C      -0.07; C      -0.28; C      -0.42; C      -0.39; C      -0.11; C       0.71; C      -0.19; C      -0.55; C      -0.17; C      -0.41; 
@             N       0.17; C      -0.28; C      -0.42; N       0.19; C      -0.29; C      -0.42; C      -0.71; H       0.25; H       0.23; H       0.27; 
@    MULPOP    dipole moment & components:     18.3634;       -1.2402    -18.1401     -2.5714
 -----------------------------------------------------------------------------
   8  Screening settings (-IFTHRS, JTDIIS, DIFDEN, times)  -12    8    F  1.14D+02  1.14D+02
      K-S energy, electrons, error :   -132.012136685347 236.0000925458    9.25D-05
@  8    -1419.18478512        7.31361D-03   -4.24D-05    8
      Virial theorem: -V/T =      2.004099
@    MULPOP   C      -0.23; C      -0.44; C      -0.20; C      -0.45; C      -0.24; C       0.58; O       0.01; C       0.46; C       0.31; C       0.46; 
@             C      -0.07; C      -0.28; C      -0.42; C      -0.39; C      -0.11; C       0.71; C      -0.19; C      -0.55; C      -0.17; C      -0.41; 
@             N       0.17; C      -0.28; C      -0.42; N       0.19; C      -0.29; C      -0.42; C      -0.71; H       0.25; H       0.23; H       0.27; 
@    MULPOP    dipole moment & components:     18.3523;       -1.2392    -18.1292     -2.5696
 -----------------------------------------------------------------------------
   9  Screening settings (-IFTHRS, JTDIIS, DIFDEN, times)  -13    9    F  1.16D+02  1.16D+02
      K-S energy, electrons, error :   -132.012409625269 236.0000925165    9.25D-05
@  9    -1419.18479426        3.09987D-03   -9.14D-06    8
      Virial theorem: -V/T =      2.004097
@    MULPOP   C      -0.23; C      -0.44; C      -0.20; C      -0.45; C      -0.24; C       0.58; O       0.01; C       0.46; C       0.31; C       0.46; 
@             C      -0.07; C      -0.28; C      -0.42; C      -0.39; C      -0.11; C       0.71; C      -0.19; C      -0.55; C      -0.18; C      -0.41; 
@             N       0.17; C      -0.28; C      -0.42; N       0.19; C      -0.29; C      -0.41; C      -0.71; H       0.25; H       0.24; H       0.27; 
@    MULPOP    dipole moment & components:     18.3484;       -1.2405    -18.1246     -2.5741
 -----------------------------------------------------------------------------
  10  Screening settings (-IFTHRS, JTDIIS, DIFDEN, times)  -13   10    F  1.16D+02  1.16D+02
      K-S energy, electrons, error :   -132.012165181678 236.0000925000    9.25D-05
@ 10    -1419.18479605        1.64949D-03   -1.78D-06    8
      Virial theorem: -V/T =      2.004098
@    MULPOP   C      -0.23; C      -0.44; C      -0.20; C      -0.45; C      -0.24; C       0.58; O       0.01; C       0.46; C       0.31; C       0.46; 
@             C      -0.07; C      -0.28; C      -0.42; C      -0.39; C      -0.11; C       0.71; C      -0.19; C      -0.55; C      -0.18; C      -0.41; 
@             N       0.17; C      -0.28; C      -0.42; N       0.19; C      -0.29; C      -0.41; C      -0.71; H       0.25; H       0.24; H       0.27; 
@    MULPOP    dipole moment & components:     18.3442;       -1.2426    -18.1202     -2.5736
 -----------------------------------------------------------------------------
  11  Screening settings (-IFTHRS, JTDIIS, DIFDEN, times)  -13   11    F  1.16D+02  1.16D+02
      K-S energy, electrons, error :   -132.012306316083 236.0000924861    9.25D-05
@ 11    -1419.18479643        5.54295D-04   -3.83D-07    8
      Virial theorem: -V/T =      2.004098
@    MULPOP   C      -0.23; C      -0.44; C      -0.20; C      -0.45; C      -0.24; C       0.58; O       0.01; C       0.46; C       0.31; C       0.46; 
@             C      -0.07; C      -0.28; C      -0.42; C      -0.39; C      -0.11; C       0.71; C      -0.19; C      -0.55; C      -0.18; C      -0.41; 
@             N       0.17; C      -0.28; C      -0.42; N       0.19; C      -0.29; C      -0.41; C      -0.71; H       0.25; H       0.24; H       0.27; 
@    MULPOP    dipole moment & components:     18.3423;       -1.2436    -18.1181     -2.5743
 -----------------------------------------------------------------------------
  12  Screening settings (-IFTHRS, JTDIIS, DIFDEN, times)  -13   12    F  1.16D+02  1.16D+02
      K-S energy, electrons, error :   -132.012259526039 236.0000924802    9.25D-05
@ 12    -1419.18479652        2.44645D-04   -9.25D-08    8
      Virial theorem: -V/T =      2.004098
@    MULPOP   C      -0.23; C      -0.44; C      -0.20; C      -0.45; C      -0.24; C       0.58; O       0.01; C       0.46; C       0.31; C       0.46; 
@             C      -0.07; C      -0.28; C      -0.42; C      -0.39; C      -0.11; C       0.71; C      -0.19; C      -0.55; C      -0.18; C      -0.41; 
@             N       0.17; C      -0.28; C      -0.42; N       0.19; C      -0.29; C      -0.41; C      -0.71; H       0.25; H       0.24; H       0.27; 
@    MULPOP    dipole moment & components:     18.3409;       -1.2439    -18.1166     -2.5748
 -----------------------------------------------------------------------------
  13  Screening settings (-IFTHRS, JTDIIS, DIFDEN, times)  -13   13    F  1.16D+02  1.16D+02
      K-S energy, electrons, error :   -132.012261023370 236.0000924768    9.25D-05
@ 13    -1419.18479654        1.48416D-04   -1.42D-08    8
      Virial theorem: -V/T =      2.004098
@    MULPOP   C      -0.23; C      -0.44; C      -0.20; C      -0.45; C      -0.24; C       0.58; O       0.01; C       0.46; C       0.31; C       0.46; 
@             C      -0.07; C      -0.28; C      -0.42; C      -0.39; C      -0.11; C       0.71; C      -0.19; C      -0.55; C      -0.18; C      -0.41; 
@             N       0.17; C      -0.28; C      -0.42; N       0.19; C      -0.29; C      -0.41; C      -0.71; H       0.25; H       0.24; H       0.27; 
@    MULPOP    dipole moment & components:     18.3401;       -1.2445    -18.1157     -2.5749
 -----------------------------------------------------------------------------
  14  Screening settings (-IFTHRS, JTDIIS, DIFDEN, times)  -13   14    F  1.16D+02  1.16D+02
      K-S energy, electrons, error :   -132.012267737527 236.0000924750    9.25D-05
@ 14    -1419.18479654        6.58897D-05   -4.78D-09    8
      Virial theorem: -V/T =      2.004098
@    MULPOP   C      -0.23; C      -0.44; C      -0.20; C      -0.45; C      -0.24; C       0.58; O       0.01; C       0.46; C       0.31; C       0.46; 
@             C      -0.07; C      -0.28; C      -0.42; C      -0.39; C      -0.11; C       0.71; C      -0.19; C      -0.55; C      -0.18; C      -0.41; 
@             N       0.17; C      -0.28; C      -0.42; N       0.19; C      -0.29; C      -0.41; C      -0.71; H       0.25; H       0.24; H       0.27; 
@    MULPOP    dipole moment & components:     18.3396;       -1.2446    -18.1153     -2.5750
 -----------------------------------------------------------------------------
  15  Screening settings (-IFTHRS, JTDIIS, DIFDEN, times)  -13   15    F  1.16D+02  1.16D+02
      K-S energy, electrons, error :   -132.012267258066 236.0000924741    9.25D-05
@ 15    -1419.18479654        4.11926D-05   -1.22D-09    8
      Virial theorem: -V/T =      2.004098
@    MULPOP   C      -0.23; C      -0.44; C      -0.20; C      -0.45; C      -0.24; C       0.58; O       0.01; C       0.46; C       0.31; C       0.46; 
@             C      -0.07; C      -0.28; C      -0.42; C      -0.39; C      -0.11; C       0.71; C      -0.19; C      -0.55; C      -0.18; C      -0.41; 
@             N       0.17; C      -0.28; C      -0.42; N       0.19; C      -0.29; C      -0.41; C      -0.71; H       0.25; H       0.24; H       0.27; 
@    MULPOP    dipole moment & components:     18.3394;       -1.2446    -18.1150     -2.5751
 -----------------------------------------------------------------------------
  16  Screening settings (-IFTHRS, JTDIIS, DIFDEN, times)  -13   16    F  1.16D+02  1.16D+02
      K-S energy, electrons, error :   -132.012266996027 236.0000924737    9.25D-05
@ 16    -1419.18479654        1.56973D-05   -3.57D-10    8
      Virial theorem: -V/T =      2.004098
@    MULPOP   C      -0.23; C      -0.44; C      -0.20; C      -0.45; C      -0.24; C       0.58; O       0.01; C       0.46; C       0.31; C       0.46; 
@             C      -0.07; C      -0.28; C      -0.42; C      -0.39; C      -0.11; C       0.71; C      -0.19; C      -0.55; C      -0.18; C      -0.41; 
@             N       0.17; C      -0.28; C      -0.42; N       0.19; C      -0.29; C      -0.41; C      -0.71; H       0.25; H       0.24; H       0.27; 
@    MULPOP    dipole moment & components:     18.3392;       -1.2447    -18.1148     -2.5751
 -----------------------------------------------------------------------------
  17  Screening settings (-IFTHRS, JTDIIS, DIFDEN, times)  -13   17    F  1.16D+02  1.16D+02
      K-S energy, electrons, error :   -132.012266748888 236.0000924734    9.25D-05
@ 17    -1419.18479654        9.08856D-06   -9.09D-11    8

@ *** DIIS converged in  17 iterations !
@     Converged SCF energy, gradient:  -1419.184796542533    9.09D-06
    - total time used in SIRFCK :              0.00 seconds


 *** SCF orbital energy analysis ***

 Only the 20 lowest virtual orbital energies printed in each symmetry.

 Number of electrons :  236
 Orbital occupations :  118

 Sym       Kohn-Sham orbital energies

1 A     -19.45135995   -19.39800186   -19.33948356   -14.59245568   -14.59208451
        -10.54443132   -10.51819805   -10.51684651   -10.49560882   -10.49386695
        -10.49228846   -10.45203627   -10.44739015   -10.44541004   -10.44513816
        -10.44410906   -10.44370956   -10.44363182   -10.44179153   -10.44081015
        -10.43963588   -10.42889647   -10.42888140   -10.42376384   -10.42316977
        -10.42263305   -10.42102810   -10.41941312   -10.41817464   -10.39022209
        -10.38980080   -10.38753572   -10.38493228    -1.39216018    -1.35331330
         -1.26923998    -1.22971388    -1.22816668    -1.16215911    -1.14216723
         -1.12839852    -1.08510229    -1.05490690    -1.03415186    -1.03089294
         -1.02704856    -1.02313018    -1.02059544    -1.00605500    -0.99088004
         -0.97265713    -0.93213201    -0.92125890    -0.90816778    -0.89158720
         -0.88751061    -0.88006272    -0.87052458    -0.86035507    -0.84995268
         -0.84556501    -0.84293380    -0.79871600    -0.79699777    -0.79204771
         -0.77208859    -0.75837732    -0.75009204    -0.74421686    -0.73241737
         -0.73006174    -0.72584362    -0.71346766    -0.70299715    -0.69275953
         -0.69168708    -0.68366386    -0.68141466    -0.68105309    -0.67769105
         -0.67226459    -0.66731743    -0.66283020    -0.66196976    -0.66035591
         -0.65862351    -0.65388091    -0.65108623    -0.63004499    -0.62926499
         -0.62387829    -0.62345085    -0.61738912    -0.60971614    -0.60610450
         -0.60199718    -0.59997896    -0.59916424    -0.59470986    -0.59139227
         -0.58584456    -0.57919220    -0.57891229    -0.57575584    -0.57334823
         -0.56368345    -0.55736270    -0.55237728    -0.54895266    -0.53844660
         -0.52476453    -0.50313023    -0.49661034    -0.47606918    -0.46726613
         -0.46119916    -0.43856844    -0.39517088    -0.15333674    -0.07414356
         -0.06587177    -0.05903072    -0.05325814    -0.04906487    -0.04511058
         -0.04258804    -0.03946011    -0.03713882    -0.03509867    -0.03274606
         -0.03096655    -0.02736387    -0.02671751    -0.02337144    -0.02126115
         -0.01387858    -0.01085535    -0.00866773

    E(LUMO) :    -0.15333674 au (symmetry 1)
  - E(HOMO) :    -0.39517088 au (symmetry 1)
  ------------------------------------------
    gap     :     0.24183414 au

 --- Writing SIRIFC interface file

 CPU and wall time for SCF :    2130.093    2129.368


                       .-----------------------------------.
                       | --- Final results from SIRIUS --- |
                       `-----------------------------------'


@    Spin multiplicity:           1
@    Spatial symmetry:            1 ( irrep  A   in C1  )
@    Total charge of molecule:    1

@    Final DFT energy:          -1419.184796542533                 
@    Nuclear repulsion:          3328.199374864682
@    Electronic energy:         -4747.384171407215

@    Final gradient norm:           0.000009088559

 
     Date and time (Linux)  : Tue Jan  7 15:03:39 2020
     Host name              : s04p24.deic.sdu.dk                      

File label for MO orbitals:   7Jan20   FOCKDIIS

 (Only coefficients > 0.0100 are printed.)

 Molecular orbitals for symmetry species 1  (A  )
 ------------------------------------------------

    Orbital       109      110      111      112      113      114      115
   4 C   :1s    -0.0017   0.0057  -0.0053   0.0082   0.0101  -0.0248  -0.0050
   5 C   :1s     0.0519   0.1943  -0.0571   0.0456  -0.1633  -0.0010   0.4229
   6 C   :2px   -0.0067   0.0019  -0.0039  -0.0125   0.0517  -0.0270   0.0049
   8 C   :2pz   -0.0008  -0.0016   0.0059   0.0185  -0.0834   0.0359  -0.0135
   9 C   :2px   -0.0090   0.0026  -0.0059  -0.0194   0.0796  -0.0415   0.0078
  11 C   :2pz   -0.0004  -0.0024   0.0096   0.0286  -0.1290   0.0549  -0.0204
  12 C   :2px   -0.0086  -0.0027  -0.0094  -0.0088   0.0746  -0.0312   0.0076
  14 C   :2pz   -0.0019  -0.0072   0.0028   0.0312  -0.1154   0.0588  -0.0206
  15 C   :2px   -0.0253   0.1007  -0.0125  -0.0130  -0.0066   0.0047   0.0221
  16 C   :2py    0.0140   0.0568  -0.0145   0.0432  -0.0297  -0.0157   0.0253
  17 C   :2pz   -0.0186   0.0718  -0.0028  -0.0368   0.0067   0.0358  -0.0203
  26 C   :1s     0.0046   0.0183  -0.0077  -0.0020   0.0021   0.0223  -0.0047
  27 C   :1s     0.0133   0.3255  -0.0502  -0.0815  -0.2965  -0.1764   0.4684
  28 C   :2px    0.0027   0.0083  -0.0408   0.0015  -0.0032   0.0114   0.0010
  30 C   :2pz    0.0042  -0.0159   0.0706  -0.0004   0.0025  -0.0075   0.0030
  31 C   :2px    0.0035   0.0131  -0.0634   0.0022  -0.0050   0.0166   0.0013
  33 C   :2pz    0.0061  -0.0247   0.1101  -0.0008   0.0037  -0.0122   0.0045
  34 C   :2px    0.0026  -0.0046  -0.0527   0.0079  -0.0041   0.0188   0.0042
  35 C   :2py    0.0013   0.0102  -0.0021  -0.0091  -0.0008   0.0072  -0.0073
  36 C   :2pz    0.0045  -0.0259   0.0826   0.0019   0.0055  -0.0041   0.0048
  37 C   :2px   -0.0140  -0.0923   0.0644  -0.0046   0.1184   0.0469  -0.1893
  38 C   :2py    0.0142  -0.1025   0.1985   0.0198  -0.1016  -0.0574   0.1692
  39 C   :2pz   -0.0038  -0.0494   0.0163   0.0279   0.0288   0.0021  -0.0844
  41 C   :3d1-  -0.0004   0.0012  -0.0102  -0.0015   0.0066   0.0055  -0.0011
  42 C   :3d0    0.0005   0.0009  -0.0051   0.0028  -0.0121   0.0068  -0.0018
  48 C   :1s    -0.0085  -0.0160  -0.0159   0.0053   0.0010  -0.0097   0.0154
  49 C   :1s     0.0185  -0.0987  -0.0341   0.0283   0.1101   0.0761  -0.1404
  50 C   :2px   -0.0059   0.0023   0.0003   0.0104  -0.0428   0.0053  -0.0030
  52 C   :2pz   -0.0048  -0.0074   0.0084  -0.0180   0.0820  -0.0051   0.0041
  53 C   :2px   -0.0077   0.0034  -0.0005   0.0162  -0.0666   0.0074  -0.0041
  55 C   :2pz   -0.0067  -0.0112   0.0135  -0.0280   0.1268  -0.0091   0.0069
  56 C   :2px   -0.0086  -0.0103  -0.0017   0.0217  -0.0600  -0.0032   0.0039
  57 C   :2py   -0.0066   0.0180  -0.0096  -0.0057  -0.0014   0.0092  -0.0050
  58 C   :2pz   -0.0060  -0.0188   0.0069  -0.0189   0.1131  -0.0106   0.0097
  59 C   :2px   -0.0179  -0.0089   0.0567   0.0566  -0.0186   0.0111  -0.0446
  60 C   :2py    0.0258   0.2542  -0.0841   0.0039  -0.1786  -0.0521   0.3006
  61 C   :2pz   -0.0254  -0.0472   0.0180  -0.0168   0.1086   0.0340  -0.0387
  69 C   :1s    -0.0014  -0.0022   0.0011   0.0040   0.0000   0.0129   0.0071
  70 C   :1s    -0.0004  -0.0128   0.0064   0.0176  -0.0139   0.0167   0.0092
  71 C   :1s     0.0363   0.0334  -0.0286   0.0245  -0.0613   0.0112   0.1992
  72 C   :2px    0.0042  -0.0067   0.0229  -0.0095   0.0514  -0.0068   0.0132
  74 C   :2pz    0.0056   0.0075  -0.0397   0.0217  -0.0884   0.0460  -0.0068
  75 C   :2px    0.0056  -0.0101   0.0348  -0.0146   0.0788  -0.0124   0.0199
  77 C   :2pz    0.0081   0.0110  -0.0608   0.0335  -0.1360   0.0687  -0.0111
  78 C   :2px    0.0078  -0.0073   0.0278  -0.0168   0.0726  -0.0290   0.0272
  79 C   :2py   -0.0007  -0.0078  -0.0052   0.0253   0.0053  -0.0146  -0.0011
  80 C   :2pz    0.0094   0.0131  -0.0498   0.0282  -0.1242   0.0557  -0.0027
  81 C   :2px    0.0177  -0.0659   0.0121  -0.0381   0.0270  -0.0225  -0.0285
  82 C   :2py   -0.0003   0.1653  -0.0225  -0.0362  -0.0603   0.0260   0.1898
  83 C   :2pz    0.0173  -0.0634  -0.0052   0.0407  -0.0473  -0.0437   0.0193
  91 C   :1s    -0.0048  -0.0011   0.0004   0.0010   0.0002   0.0268  -0.0018
  92 C   :1s     0.0041   0.0219  -0.0138   0.0040  -0.0142   0.0848  -0.0066
  93 C   :1s    -0.0332  -0.1882   0.1483  -0.0901   0.1437  -0.0373  -0.3329
  94 C   :2px   -0.0132  -0.0107   0.0382   0.0022   0.0026   0.0147  -0.0019
  95 C   :2py   -0.0070  -0.0006   0.0030   0.0017  -0.0016   0.0237  -0.0021
  96 C   :2pz   -0.0069   0.0181  -0.0660   0.0002  -0.0040  -0.0012  -0.0025
  97 C   :2px   -0.0178  -0.0177   0.0589   0.0042   0.0030   0.0212  -0.0010
  98 C   :2py   -0.0088  -0.0006   0.0043   0.0025  -0.0024   0.0301  -0.0015
  99 C   :2pz   -0.0093   0.0277  -0.1026  -0.0001  -0.0051  -0.0034  -0.0035
 100 C   :2px   -0.0187   0.0296   0.0617  -0.0336   0.0076   0.0623  -0.0302
 101 C   :2py   -0.0113   0.0134   0.0025   0.0156  -0.0055   0.0821  -0.0355
 102 C   :2pz   -0.0095   0.0600  -0.1005  -0.0177  -0.0110   0.0235  -0.0149
 103 C   :2px   -0.0389  -0.0770   0.0285   0.1241   0.0439   0.0641  -0.1348
 104 C   :2py    0.0289   0.0844   0.0435   0.1788   0.0072   0.0663   0.1626
 105 C   :2pz   -0.0397   0.0524   0.0399  -0.0572   0.1659   0.0956  -0.1071
 108 C   :3d0    0.0010   0.0002   0.0021   0.0024  -0.0113   0.0013  -0.0000
 114 C   :1s     0.0021   0.0176   0.0189  -0.0295  -0.0008   0.0191  -0.0186
 115 C   :1s     0.0483  -0.3300   0.0302   0.0512   0.1812   0.0710  -0.2556
 116 C   :2px    0.0141  -0.0012   0.0260   0.0087  -0.0470  -0.0048   0.0003
 118 C   :2pz    0.0027   0.0044  -0.0482  -0.0212   0.0849  -0.0061   0.0054
 119 C   :2px    0.0204  -0.0028   0.0414   0.0142  -0.0736  -0.0068   0.0001
 121 C   :2pz    0.0035   0.0050  -0.0761  -0.0321   0.1332  -0.0097   0.0083
 122 C   :2px    0.0081   0.0322   0.0312  -0.0047  -0.0629   0.0185  -0.0158
 123 C   :2py    0.0048  -0.0093  -0.0112  -0.0046  -0.0033  -0.0229   0.0179
 124 C   :2pz   -0.0038   0.0276  -0.0576  -0.0432   0.1222   0.0046  -0.0013
 125 C   :2px    0.0342   0.0936  -0.1321  -0.0384   0.0240   0.0351   0.1304
 126 C   :2py    0.0602  -0.2093   0.1738  -0.0326  -0.1372  -0.1356   0.1853
 127 C   :2pz    0.0476   0.0968  -0.0553   0.0585  -0.1736  -0.0269   0.1122
 137 O   :1s    -0.0170   0.0744   0.0086   0.0097   0.0058  -0.0045  -0.0226
 138 O   :2px   -0.0170   0.0041   0.0005   0.0001   0.0034  -0.0110  -0.0013
 139 O   :2py   -0.0108   0.0008  -0.0005  -0.0000  -0.0008   0.0029  -0.0004
 140 O   :2pz   -0.0170  -0.0051  -0.0008   0.0014  -0.0071   0.0166  -0.0014
 141 O   :2px   -0.0244   0.0062   0.0007  -0.0000   0.0049  -0.0160  -0.0019
 142 O   :2py   -0.0154   0.0014  -0.0006  -0.0002  -0.0012   0.0043  -0.0007
 143 O   :2pz   -0.0247  -0.0071  -0.0012   0.0019  -0.0105   0.0242  -0.0020
 144 O   :2px   -0.0233   0.0052   0.0003   0.0022   0.0056  -0.0159  -0.0025
 145 O   :2py   -0.0129  -0.0011   0.0003   0.0015  -0.0012  -0.0046   0.0010
 146 O   :2pz   -0.0236  -0.0099  -0.0013   0.0038  -0.0103   0.0265  -0.0028
 147 O   :2px   -0.0121   0.0346   0.0021   0.0009   0.0022  -0.0010  -0.0058
 148 O   :2py   -0.0056   0.0053   0.0018   0.0127  -0.0080  -0.0185   0.0006
 149 O   :2pz   -0.0060   0.0186   0.0005   0.0027  -0.0017   0.0049  -0.0031
 157 C   :1s    -0.0010   0.0169   0.0006  -0.0124  -0.0020  -0.0036   0.0018
 158 C   :1s     0.0034   0.0047   0.0113  -0.0016   0.0051   0.0110   0.0251
 159 C   :1s    -0.0230  -0.2349   0.0991  -0.0173   0.1811   0.0398  -0.3098
 160 C   :2px    0.0140  -0.0079  -0.0014  -0.0052  -0.0038   0.0259   0.0016
 161 C   :2py    0.0048   0.0016  -0.0027  -0.0016   0.0007  -0.0199   0.0017
 162 C   :2pz    0.0099   0.0191   0.0073  -0.0122   0.0043  -0.0361   0.0051
 163 C   :2px    0.0200  -0.0121  -0.0016  -0.0071  -0.0050   0.0394   0.0003
 164 C   :2py    0.0073   0.0030  -0.0039  -0.0019   0.0012  -0.0337   0.0039
 165 C   :2pz    0.0142   0.0351   0.0112  -0.0191   0.0066  -0.0549   0.0082
 166 C   :2px    0.0131  -0.0447  -0.0077   0.0464  -0.0001   0.0315   0.0028
 167 C   :2py    0.0090   0.0308  -0.0100  -0.0176  -0.0082   0.0867  -0.0263
 168 C   :2pz    0.0119  -0.0073   0.0119   0.0178   0.0110  -0.0598   0.0022
 169 C   :2px    0.1111   0.2012  -0.0860  -0.1551  -0.1398  -0.0041   0.3056
 170 C   :2py    0.0148  -0.0288  -0.0877  -0.0706  -0.0464   0.0394   0.1018
 171 C   :2pz    0.0833  -0.2576  -0.0399   0.0945  -0.0496  -0.0599   0.0912
 172 C   :3d2-  -0.0001  -0.0007  -0.0082  -0.0004  -0.0020   0.0152  -0.0002
 173 C   :3d1-  -0.0003  -0.0000   0.0141  -0.0006   0.0017   0.0093  -0.0012
 179 C   :1s     0.0042  -0.0055   0.0023  -0.0253  -0.0040   0.0002   0.0118
 180 C   :1s     0.0093   0.0727  -0.0184  -0.0007  -0.0109  -0.0278   0.0351
 181 C   :1s     0.0239   0.5775  -0.0032  -0.1921  -0.0781   0.0333   0.2879
 182 C   :2px   -0.0150   0.0004  -0.0002   0.0195   0.0043  -0.0004  -0.0051
 183 C   :2py   -0.0036  -0.0069  -0.0025  -0.0087  -0.0072   0.1231  -0.0074
[...]


                    *****************************************
                    *** DFT response calculation (TD-DFT) ***
                    *****************************************



 Linear response excitations for quadratic response
 - symmetry of excitation operator    1  ( A  )
 - is the operator a triplet operator ?     F


 Perturbation symmetry.     KSYMOP:       1
 Perturbation spin symmetry.TRPLET:       F
 Orbital variables.         KZWOPT:   95698
 Configuration variables.   KZCONF:       0
 Total number of variables. KZVAR :   95698



 --- EXCITATION ENERGIES AND TRANSITION MOMENT CALCULATION (MCTDHF) ---

 Operator symmetry = 1  ( A  ); triplet =   F


 ** RSPCTL MICROITERATION NUMBER    1

      Root  Residual tot.,    conf., and orb.    Bnorm      Eigenvalue
      ----------------------------------------------------------------
         1    2.51820D-01  0.00D+00  2.52D-01  7.18D-01    1.39724D-01

 ** RSPCTL MICROITERATION NUMBER    2

      Root  Residual tot.,    conf., and orb.    Bnorm      Eigenvalue
      ----------------------------------------------------------------
         1    7.97244D-02  0.00D+00  7.97D-02  7.13D-01    1.14741D-01

 ** RSPCTL MICROITERATION NUMBER    3

      Root  Residual tot.,    conf., and orb.    Bnorm      Eigenvalue
      ----------------------------------------------------------------
         1    4.49287D-02  0.00D+00  4.49D-02  7.15D-01    1.09761D-01

 ** RSPCTL MICROITERATION NUMBER    4

      Root  Residual tot.,    conf., and orb.    Bnorm      Eigenvalue
      ----------------------------------------------------------------
         1    1.82770D-02  0.00D+00  1.83D-02  7.15D-01    1.09077D-01

 ** RSPCTL MICROITERATION NUMBER    5

      Root  Residual tot.,    conf., and orb.    Bnorm      Eigenvalue
      ----------------------------------------------------------------
         1    7.44761D-03  0.00D+00  7.45D-03  7.15D-01    1.08942D-01

 ** RSPCTL MICROITERATION NUMBER    6

      Root  Residual tot.,    conf., and orb.    Bnorm      Eigenvalue
      ----------------------------------------------------------------
         1    3.38251D-03  0.00D+00  3.38D-03  7.15D-01    1.08923D-01

 ** RSPCTL MICROITERATION NUMBER    7

      Root  Residual tot.,    conf., and orb.    Bnorm      Eigenvalue
      ----------------------------------------------------------------
         1    1.68856D-03  0.00D+00  1.69D-03  7.15D-01    1.08918D-01

 ** RSPCTL MICROITERATION NUMBER    8

      Root  Residual tot.,    conf., and orb.    Bnorm      Eigenvalue
      ----------------------------------------------------------------
         1    7.76534D-04  0.00D+00  7.77D-04  7.15D-01    1.08917D-01

 ** RSPCTL MICROITERATION NUMBER    9

      Root  Residual tot.,    conf., and orb.    Bnorm      Eigenvalue
      ----------------------------------------------------------------
         1    3.87576D-04  0.00D+00  3.88D-04  7.15D-01    1.08917D-01

 *** THE REQUESTED    1 SOLUTION VECTORS CONVERGED

 Convergence of RSP solution vectors, threshold = 1.00D-03
 ---------------------------------------------------------------
 (dimension of paired reduced space:   18)
 RSP solution vector no.    1; norm of residual   5.42D-04

 *** RSPCTL MICROITERATIONS CONVERGED

@ QRPPVE: SINGLET EXCITATION VECTOR    1    SYMMETRY    1  ( A  )
@ Singlet excitation energy  1.089171D-01


 Linear response calculations for quadratic response
 - singlet property operator of symmetry    1  ( A  )


 Perturbation symmetry.     KSYMOP:       1
 Perturbation spin symmetry.TRPLET:       F
 Orbital variables.         KZWOPT:   95698
 Configuration variables.   KZCONF:       0
 Total number of variables. KZVAR :   95698


 QRLRVE -- linear response calculation for symmetry  1  ( A  )
 QRLRVE -- operator label : XDIPLEN 
 QRLRVE -- operator spin  :   0
 QRLRVE -- frequencies :  0.054459



 ---  SOLVING SETS OF LINEAR EQUATIONS FOR LINEAR RESPONSE PROPERTIES ---

 Operator symmetry = 1  ( A  ); triplet =   F


 ** RSPCTL MICROITERATION NUMBER    1

       No.  Residual tot.,    conf., and orb.    Bnorm      Frequency 
      ----------------------------------------------------------------
         1    1.12559D+01  0.00D+00  1.13D+01  1.65D+01    5.44586D-02

 ** RSPCTL MICROITERATION NUMBER    2

       No.  Residual tot.,    conf., and orb.    Bnorm      Frequency 
      ----------------------------------------------------------------
         1    4.17353D+00  0.00D+00  4.17D+00  1.99D+01    5.44586D-02

 ** RSPCTL MICROITERATION NUMBER    3

       No.  Residual tot.,    conf., and orb.    Bnorm      Frequency 
      ----------------------------------------------------------------
         1    2.05736D+00  0.00D+00  2.06D+00  2.15D+01    5.44586D-02

 ** RSPCTL MICROITERATION NUMBER    4

       No.  Residual tot.,    conf., and orb.    Bnorm      Frequency 
      ----------------------------------------------------------------
         1    1.07663D+00  0.00D+00  1.08D+00  2.21D+01    5.44586D-02

 ** RSPCTL MICROITERATION NUMBER    5

       No.  Residual tot.,    conf., and orb.    Bnorm      Frequency 
      ----------------------------------------------------------------
         1    5.57412D-01  0.00D+00  5.57D-01  2.25D+01    5.44586D-02

 ** RSPCTL MICROITERATION NUMBER    6

       No.  Residual tot.,    conf., and orb.    Bnorm      Frequency 
      ----------------------------------------------------------------
         1    3.19996D-01  0.00D+00  3.20D-01  2.26D+01    5.44586D-02

 ** RSPCTL MICROITERATION NUMBER    7

       No.  Residual tot.,    conf., and orb.    Bnorm      Frequency 
      ----------------------------------------------------------------
         1    1.87948D-01  0.00D+00  1.88D-01  2.27D+01    5.44586D-02

 ** RSPCTL MICROITERATION NUMBER    8

       No.  Residual tot.,    conf., and orb.    Bnorm      Frequency 
      ----------------------------------------------------------------
         1    1.04089D-01  0.00D+00  1.04D-01  2.27D+01    5.44586D-02

 ** RSPCTL MICROITERATION NUMBER    9

       No.  Residual tot.,    conf., and orb.    Bnorm      Frequency 
      ----------------------------------------------------------------
         1    4.53745D-02  0.00D+00  4.54D-02  2.27D+01    5.44586D-02

 ** RSPCTL MICROITERATION NUMBER   10

       No.  Residual tot.,    conf., and orb.    Bnorm      Frequency 
      ----------------------------------------------------------------
         1    2.21626D-02  0.00D+00  2.22D-02  2.27D+01    5.44586D-02

 *** THE REQUESTED    1 SOLUTION VECTORS CONVERGED

 Convergence of RSP solution vectors, threshold = 1.00D-03
 ---------------------------------------------------------------
 (dimension of paired reduced space:   20)
 RSP solution vector no.    1; norm of residual   9.77D-04

 *** RSPCTL MICROITERATIONS CONVERGED

@ QRLRVE: SINGLET SOLUTION FOR SYMMETRY    1  ( A  )    LABEL   XDIPLEN     FREQUENCY   0.544586D-01

@ QRLRVE:  << XDIPLEN  ; XDIPLEN  >> (   0.05446):     386.819931927    

@ QRLRVE:  << YDIPLEN  ; XDIPLEN  >> (   0.05446):    -49.2805678674    

@ QRLRVE:  << ZDIPLEN  ; XDIPLEN  >> (   0.05446):     68.0810878295    


 QRLRVE -- linear response calculation for symmetry  1  ( A  )
 QRLRVE -- operator label : YDIPLEN 
 QRLRVE -- operator spin  :   0
 QRLRVE -- frequencies :  0.054459



 ---  SOLVING SETS OF LINEAR EQUATIONS FOR LINEAR RESPONSE PROPERTIES ---

 Operator symmetry = 1  ( A  ); triplet =   F


 ** RSPCTL MICROITERATION NUMBER    1

       No.  Residual tot.,    conf., and orb.    Bnorm      Frequency 
      ----------------------------------------------------------------
         1    1.73187D+01  0.00D+00  1.73D+01  2.82D+01    5.44586D-02

 ** RSPCTL MICROITERATION NUMBER    2

       No.  Residual tot.,    conf., and orb.    Bnorm      Frequency 
      ----------------------------------------------------------------
         1    9.03637D+00  0.00D+00  9.04D+00  3.87D+01    5.44586D-02

 ** RSPCTL MICROITERATION NUMBER    3

       No.  Residual tot.,    conf., and orb.    Bnorm      Frequency 
      ----------------------------------------------------------------
         1    6.57911D+00  0.00D+00  6.58D+00  4.78D+01    5.44586D-02

 ** RSPCTL MICROITERATION NUMBER    4

       No.  Residual tot.,    conf., and orb.    Bnorm      Frequency 
      ----------------------------------------------------------------
         1    3.56864D+00  0.00D+00  3.57D+00  5.27D+01    5.44586D-02

 ** RSPCTL MICROITERATION NUMBER    5

       No.  Residual tot.,    conf., and orb.    Bnorm      Frequency 
      ----------------------------------------------------------------
         1    1.56675D+00  0.00D+00  1.57D+00  5.40D+01    5.44586D-02

 ** RSPCTL MICROITERATION NUMBER    6

       No.  Residual tot.,    conf., and orb.    Bnorm      Frequency 
      ----------------------------------------------------------------
         1    7.12030D-01  0.00D+00  7.12D-01  5.45D+01    5.44586D-02

 ** RSPCTL MICROITERATION NUMBER    7

       No.  Residual tot.,    conf., and orb.    Bnorm      Frequency 
      ----------------------------------------------------------------
         1    3.39421D-01  0.00D+00  3.39D-01  5.46D+01    5.44586D-02

 ** RSPCTL MICROITERATION NUMBER    8

       No.  Residual tot.,    conf., and orb.    Bnorm      Frequency 
      ----------------------------------------------------------------
         1    1.34459D-01  0.00D+00  1.34D-01  5.46D+01    5.44586D-02

 ** RSPCTL MICROITERATION NUMBER    9

       No.  Residual tot.,    conf., and orb.    Bnorm      Frequency 
      ----------------------------------------------------------------
         1    5.26656D-02  0.00D+00  5.27D-02  5.46D+01    5.44586D-02

 *** THE REQUESTED    1 SOLUTION VECTORS CONVERGED

 Convergence of RSP solution vectors, threshold = 1.00D-03
 ---------------------------------------------------------------
 (dimension of paired reduced space:   18)
 RSP solution vector no.    1; norm of residual   9.64D-04

 *** RSPCTL MICROITERATIONS CONVERGED

@ QRLRVE: SINGLET SOLUTION FOR SYMMETRY    1  ( A  )    LABEL   YDIPLEN     FREQUENCY   0.544586D-01

@ QRLRVE:  << XDIPLEN  ; YDIPLEN  >> (   0.05446):    -49.3579797510    

@ QRLRVE:  << YDIPLEN  ; YDIPLEN  >> (   0.05446):     726.371677328    

@ QRLRVE:  << ZDIPLEN  ; YDIPLEN  >> (   0.05446):    -1.85428066240    


 QRLRVE -- linear response calculation for symmetry  1  ( A  )
 QRLRVE -- operator label : ZDIPLEN 
 QRLRVE -- operator spin  :   0
 QRLRVE -- frequencies :  0.054459



 ---  SOLVING SETS OF LINEAR EQUATIONS FOR LINEAR RESPONSE PROPERTIES ---

 Operator symmetry = 1  ( A  ); triplet =   F


 ** RSPCTL MICROITERATION NUMBER    1

       No.  Residual tot.,    conf., and orb.    Bnorm      Frequency 
      ----------------------------------------------------------------
         1    9.04046D+00  0.00D+00  9.04D+00  1.22D+01    5.44586D-02

 ** RSPCTL MICROITERATION NUMBER    2

       No.  Residual tot.,    conf., and orb.    Bnorm      Frequency 
      ----------------------------------------------------------------
         1    3.15690D+00  0.00D+00  3.16D+00  1.46D+01    5.44586D-02

 ** RSPCTL MICROITERATION NUMBER    3

       No.  Residual tot.,    conf., and orb.    Bnorm      Frequency 
      ----------------------------------------------------------------
         1    1.34137D+00  0.00D+00  1.34D+00  1.55D+01    5.44586D-02

 ** RSPCTL MICROITERATION NUMBER    4

       No.  Residual tot.,    conf., and orb.    Bnorm      Frequency 
      ----------------------------------------------------------------
         1    6.24294D-01  0.00D+00  6.24D-01  1.58D+01    5.44586D-02

 ** RSPCTL MICROITERATION NUMBER    5

       No.  Residual tot.,    conf., and orb.    Bnorm      Frequency 
      ----------------------------------------------------------------
         1    3.61875D-01  0.00D+00  3.62D-01  1.59D+01    5.44586D-02

 ** RSPCTL MICROITERATION NUMBER    6

       No.  Residual tot.,    conf., and orb.    Bnorm      Frequency 
      ----------------------------------------------------------------
         1    1.83987D-01  0.00D+00  1.84D-01  1.60D+01    5.44586D-02

 ** RSPCTL MICROITERATION NUMBER    7

       No.  Residual tot.,    conf., and orb.    Bnorm      Frequency 
      ----------------------------------------------------------------
         1    1.09058D-01  0.00D+00  1.09D-01  1.60D+01    5.44586D-02

 ** RSPCTL MICROITERATION NUMBER    8

       No.  Residual tot.,    conf., and orb.    Bnorm      Frequency 
      ----------------------------------------------------------------
         1    6.50662D-02  0.00D+00  6.51D-02  1.60D+01    5.44586D-02

 ** RSPCTL MICROITERATION NUMBER    9

       No.  Residual tot.,    conf., and orb.    Bnorm      Frequency 
      ----------------------------------------------------------------
         1    2.93824D-02  0.00D+00  2.94D-02  1.60D+01    5.44586D-02

 ** RSPCTL MICROITERATION NUMBER   10

       No.  Residual tot.,    conf., and orb.    Bnorm      Frequency 
      ----------------------------------------------------------------
         1    1.48868D-02  0.00D+00  1.49D-02  1.60D+01    5.44586D-02

 *** THE REQUESTED    1 SOLUTION VECTORS CONVERGED

 Convergence of RSP solution vectors, threshold = 1.00D-03
 ---------------------------------------------------------------
 (dimension of paired reduced space:   20)
 RSP solution vector no.    1; norm of residual   9.28D-04

 *** RSPCTL MICROITERATIONS CONVERGED

@ QRLRVE: SINGLET SOLUTION FOR SYMMETRY    1  ( A  )    LABEL   ZDIPLEN     FREQUENCY   0.544586D-01

@ QRLRVE:  << XDIPLEN  ; ZDIPLEN  >> (   0.05446):     68.0661498115    

@ QRLRVE:  << YDIPLEN  ; ZDIPLEN  >> (   0.05446):    -1.80384642014    

@ QRLRVE:  << ZDIPLEN  ; ZDIPLEN  >> (   0.05446):     272.116649430    
 DFT-QR computed in a linearly-scaling fashion.



 Second order moment in a.u. for
 A operator label,  symmetry, spin:      XDIPLEN     1    0
 B operator label,  symmetry, spin:      XDIPLEN     1    0
 Excited state no., symmetry, spin:             1    1    0

 omega B, excitation energy, moment :    0.054459    0.108917   20.449140


 Second order moment in a.u. for
 A operator label,  symmetry, spin:      YDIPLEN     1    0
 B operator label,  symmetry, spin:      XDIPLEN     1    0
 Excited state no., symmetry, spin:             1    1    0

 omega B, excitation energy, moment :    0.054459    0.108917  -73.684997


 Second order moment in a.u. for
 A operator label,  symmetry, spin:      ZDIPLEN     1    0
 B operator label,  symmetry, spin:      XDIPLEN     1    0
 Excited state no., symmetry, spin:             1    1    0

 omega B, excitation energy, moment :    0.054459    0.108917    9.965956


 Second order moment in a.u. for
 A operator label,  symmetry, spin:      XDIPLEN     1    0
 B operator label,  symmetry, spin:      YDIPLEN     1    0
 Excited state no., symmetry, spin:             1    1    0

 omega B, excitation energy, moment :    0.054459    0.108917  -73.684966


 Second order moment in a.u. for
 A operator label,  symmetry, spin:      YDIPLEN     1    0
 B operator label,  symmetry, spin:      YDIPLEN     1    0
 Excited state no., symmetry, spin:             1    1    0

 omega B, excitation energy, moment :    0.054459    0.108917  -36.247580


 Second order moment in a.u. for
 A operator label,  symmetry, spin:      ZDIPLEN     1    0
 B operator label,  symmetry, spin:      YDIPLEN     1    0
 Excited state no., symmetry, spin:             1    1    0

 omega B, excitation energy, moment :    0.054459    0.108917  -38.122014


 Second order moment in a.u. for
 A operator label,  symmetry, spin:      XDIPLEN     1    0
 B operator label,  symmetry, spin:      ZDIPLEN     1    0
 Excited state no., symmetry, spin:             1    1    0

 omega B, excitation energy, moment :    0.054459    0.108917    9.965955


 Second order moment in a.u. for
 A operator label,  symmetry, spin:      YDIPLEN     1    0
 B operator label,  symmetry, spin:      ZDIPLEN     1    0
 Excited state no., symmetry, spin:             1    1    0

 omega B, excitation energy, moment :    0.054459    0.108917  -38.122026


 Second order moment in a.u. for
 A operator label,  symmetry, spin:      ZDIPLEN     1    0
 B operator label,  symmetry, spin:      ZDIPLEN     1    0
 Excited state no., symmetry, spin:             1    1    0

 omega B, excitation energy, moment :    0.054459    0.108917    5.062585


       *******************************************************************
       ************ FINAL RESULTS FROM TWO-PHOTON CALCULATION ************
       *******************************************************************

 The two-photon absorption strength for an average molecular  
 orientation is computed according to formulas given by       
 P.R. Monson and W.M. McClain in J. Chem. Phys. 53:29, 1970   
 and W.M. McClain in J. Chem. Phys. 55:2789, 1971.            
 The absorption depends on the light polarization.            
 A monochromatic light source is assumed.                     

 All results are presented in atomic units, except the        
 excitation energy which is given in eV and two-photon cross  
 section which is given in GM. A FWHM of 0.1 eV is assumed.   

   Conversion factors:
      1 a.u. = 1.896788 10^{-50} cm^4 s/photon
      1 GM = 10^{-50} cm^4 s/photon


                  +--------------------------------+
                  | Two-photon transition tensor S |
                  +--------------------------------+
     ---------------------------------------------------------------------------------
     Sym  No  Energy        Sxx        Syy        Szz        Sxy        Sxz        Syz
     ---------------------------------------------------------------------------------
       1   1    2.96    20.4   -36.2     5.1   -73.7    10.0   -38.1
     ------------------------------------------------------------------------


                    Transition probabilities (a.u.)         
                   -----------------------------------------
                    D  =  2*Df + 4*Dg, Linear   polarization
                    D  = -2*Df + 6*Dg, Circular polarization
                    Df = sum(i,j){ S_ii * S_jj }/30         
                    Dg = sum(i,j){ S_ij * S_ij }/30         

                   Two-photon cross sections                
         ---------------------------------------------------
          sigma  =  8*pi^3*alpha^2*hbar/e^4 * E^2*D   (a.u.)

                             Polarization ratio      
                      -------------------------------
                          R  = (-Df+3*Dg)/(Df+2*Dg)  


                   +-----------------------------------+
                   |   Two-photon absorption summary   |
                   +-----------------------------------+
   ---------------------------------------------------------------------------------
   Sym  No  Energy  Polarization         Df         Dg          D      sigma       R
   ---------------------------------------------------------------------------------
     1   1    2.96   Linear       0.384E+01  0.524E+03  0.210E+04  0.135E+02    1.49
     1   1    2.96   Circular     0.384E+01  0.524E+03  0.314E+04  0.202E+02    1.49
   ---------------------------------------------------------------------------------

  Total CPU  time used in RESPONSE:   1 hour  40 minutes 55 seconds
  Total wall time used in RESPONSE:   1 hour  40 minutes 50 seconds


                   .-------------------------------------------.
                   | End of Dynamic Property Section (RESPONS) |
                   `-------------------------------------------'

  Total CPU  time used in DALTON:   2 hours 17 minutes 19 seconds
  Total wall time used in DALTON:   2 hours 17 minutes 14 seconds

 
     Date and time (Linux)  : Tue Jan  7 16:44:33 2020
     Host name              : s04p24.deic.sdu.dk                      
